LAMMPS data file via write_data, version 29 Sep 2021, timestep = 4571786

1620 atoms
1 atom types

0 52.794504272175 xlo xhi
0 54.794296100667 ylo yhi
0 45.195295323908 zlo zhi

Masses

1 40.078

Atoms # full

440 0 1 0 9.617371945696444 10.375267420552488 4.320018023071805 0 0 0
27 0 1 0 4.40495513095477 9.864253467807819 7.473620630028156 0 0 0
13 0 1 0 9.839520778104061 10.063834626071792 13.895094913417346 0 0 0
4 0 1 0 9.511488844650257 4.364202179373022 13.42608714464115 0 0 0
126 0 1 0 5.455456101639262 11.619745310842967 14.930613751185154 0 0 0
90 0 1 0 7.3448175465153165 8.613003807528369 1.4889799479352135 0 0 4
29 0 1 0 0.5578595013732535 8.07808187389092 6.209711773095822 -1 0 0
28 0 1 0 4.685472927412189 0.5111127798756763 12.672508936590491 0 0 0
34 0 1 0 6.553600301598488 1.3502450981860783 2.18894974366996 0 0 0
10 0 1 0 1.8929168623278194 12.291006848760885 5.460801059924134 0 0 0
36 0 1 0 9.027680255574984 7.40237999177382 6.508394049346229 0 0 0
2 0 1 0 10.466659919235267 2.0424955651411194 9.166698526479491 0 -4 0
9 0 1 0 9.900417083538162 12.865502258118594 8.28518705257279 0 0 0
35 0 1 0 6.68178793881215 3.561136736324359 9.201060546961838 0 0 0
100 0 1 0 4.75389994536383 6.021912219220351 5.2771607565014875 0 0 4
16 0 1 0 5.476007581863213 6.6766985690194325 11.781735240257674 0 0 0
1367 0 1 0 2.000224025066212 7.8065090410367475 11.633379595369565 1 0 0
18 0 1 0 5.970025090645136 12.86111542583817 5.791785286379191 0 0 0
12 0 1 0 3.482973553151018 7.4943068522198155 0.5382856058810149 0 0 5
20 0 1 0 7.349629648445175 10.378205618327335 10.650114669033037 0 0 0
89 0 1 0 10.45085476670075 6.777690781272976 3.2225412677235123 0 0 -5
22 0 1 0 1.2382126698110625 10.00033346375683 2.503670915683223 0 0 0
88 0 1 0 9.708401521629131 11.584808759041167 0.3990165675257469 0 0 -1
24 0 1 0 3.0503052036095495 3.1321635586628935 7.961591677310057 0 0 0
14 0 1 0 10.773899463894848 1.3775999023938275 0.3765949702399694 0 2 -6
137 0 1 0 0.8418959928399681 11.896525053743055 11.302174716128981 0 0 0
6 0 1 0 8.733865270998862 0.979275019078342 13.096970607180051 0 0 0
23 0 1 0 12.58386088015886 7.423649501783432 9.459908087269417 0 0 0
17 0 1 0 1.0403802678302398 1.961689108723355 2.4163705166920937 0 0 0
32 0 1 0 0.44664817877675284 3.3844999990443876 13.113343557980281 -8 0 0
30 0 1 0 3.0359738227720596 4.12375585682367 0.24222456168330297 0 0 -8
433 0 1 0 13.096184941384866 11.392307166973922 9.827881246547165 0 0 0
8 0 1 0 6.39315295365214 13.618767879700105 1.4340125562296595 0 0 -2
37 0 1 0 8.831359150052466 7.520344156959153 21.76820827167498 0 0 0
38 0 1 0 10.432378091689236 4.675727637132801 29.24969027816788 0 0 0
39 0 1 0 7.498862758088944 6.99575346850583 25.650912652204962 0 0 0
40 0 1 0 3.0828734318952473 4.482327814253567 22.953036461343576 0 0 0
69 0 1 0 0.1993607709816244 1.3616602987639619 16.753349270002406 0 0 0
50 0 1 0 6.0838592312264845 12.699836259693194 23.697253542741645 0 0 0
43 0 1 0 7.762563207505619 9.75247670445901 17.237076904036297 0 0 0
44 0 1 0 10.876513429679589 11.221805209442177 27.201806381449234 0 0 0
354 0 1 0 5.319406676165909 2.0651946283989173 18.267105990482147 0 1 0
46 0 1 0 4.8580921480655705 13.028605728418938 28.54755828239505 0 0 0
41 0 1 0 10.54088755039947 0.5703932982133759 18.53698302260932 0 1 0
48 0 1 0 2.5973477982599236 7.352227326309633 28.667321426489487 0 0 0
71 0 1 0 1.869162507278393 10.877790714607594 26.856086395914108 0 0 0
51 0 1 0 8.432123700054992 12.125284079034634 19.838271778567645 0 0 0
64 0 1 0 7.28909751150473 4.223556810287984 23.235957222720558 0 0 0
52 0 1 0 10.443750254043138 13.268002313224509 23.187826867999135 0 0 0
67 0 1 0 6.7417243322411435 1.304538208260471 25.239138535924486 0 -3 0
54 0 1 0 2.654940608094332 6.463479596272299 15.906535519141178 0 0 0
1279 0 1 0 2.322070132879266 8.053873097995641 23.11003263341095 -2 0 0
56 0 1 0 6.33083704955066 3.0533922010811403 29.429014107776965 0 0 0
57 0 1 0 7.167288446843328 5.318639257087051 19.466771024358472 0 0 0
58 0 1 0 10.41241427354838 2.239844002709045 24.922163556218898 0 0 0
475 0 1 0 11.397298193267103 6.252948998226821 19.05484345897813 0 0 0
60 0 1 0 4.961735277879546 8.932276936651364 19.91376920436878 0 0 0
3 0 1 0 2.8367414156040254 11.63274705584463 17.900001284688138 0 0 0
63 0 1 0 2.9361033193011488 1.6847331000899368 27.601906186044747 -1 3 0
61 0 1 0 5.901022596215645 5.906345996623678 15.279767175316428 0 0 0
1303 0 1 0 0.3907392799999712 10.877519868340523 20.589925752922667 -1 0 0
68 0 1 0 1.2833641532865956 13.553324521335561 22.962223779098004 0 0 0
492 0 1 0 12.887477496523658 7.210176609225563 27.717585574317905 0 0 0
1261 0 1 0 0.014784535435606774 12.863468022171418 15.082135128562431 1 0 0
25 0 1 0 11.252436022335988 6.907099567407686 15.16438875138501 0 0 0
72 0 1 0 8.115081412573092 11.849976046406118 32.9299942008292 0 0 0
73 0 1 0 8.667981492476347 6.289781594954149 31.785228879716094 0 0 0
74 0 1 0 6.4737304525173425 11.778660295988052 43.17795865568452 0 0 0
86 0 1 0 1.3391540542032823 1.0476474312066262 32.317482175870694 1 0 0
76 0 1 0 2.883125516711675 7.452362602821054 36.02562126547116 0 0 0
81 0 1 0 5.391594187219749 7.312757790000849 33.028968048219156 0 0 0
1317 0 1 0 2.210639253798013 9.808428206251609 41.351780871824445 2 0 0
400 0 1 0 10.442850555880637 1.611735583426465 41.43396827937683 0 -3 0
101 0 1 0 6.0907863561063404 9.99794272145334 37.97710667642069 0 0 0
11 0 1 0 0.8209882891330831 12.056096903134732 44.83509715921352 0 0 4
187 0 1 0 4.512471676316251 11.45827725352841 32.87029587263218 0 0 0
83 0 1 0 8.492777976602765 8.526210709644543 35.49823352227606 0 0 0
1315 0 1 0 1.6181354282952585 10.784160122822922 38.01751261439902 -5 0 0
85 0 1 0 4.464754281635187 3.0081071336558005 33.52374702115482 0 0 0
200 0 1 0 4.527525182037299 13.061270056722753 39.76782433773858 0 0 0
87 0 1 0 3.117078327497397 2.7121842795295277 37.26623528450595 0 0 0
42 0 1 0 10.290083661384157 9.322685035645895 30.328333630568856 0 0 0
838 0 1 0 11.845803971647053 1.2568523532809588 31.916687440263182 0 1 0
184 0 1 0 9.41600631833226 10.99882104233515 41.37136619921433 0 0 0
91 0 1 0 8.118512990514303 4.82460668009513 35.314710246892346 0 0 0
92 0 1 0 11.186301843420905 5.45800980816448 41.52225763449042 0 0 0
104 0 1 0 4.909375458076812 5.782766648134923 39.372664513370395 0 0 0
94 0 1 0 10.79194104514885 1.5227039726126672 35.658454513108225 0 0 0
80 0 1 0 11.216040746726247 8.053111436751465 44.40944888360122 0 0 -2
96 0 1 0 1.2055977397316469 3.06119103651029 42.413795736026266 -2 0 0
97 0 1 0 10.67200676493548 6.089725656208206 37.500511725870766 0 0 0
98 0 1 0 5.905502439145049 5.553144961116876 43.656291593632204 0 0 0
93 0 1 0 12.540782330664598 6.814375055820951 31.816824132215732 0 0 0
107 0 1 0 7.339570171992243 3.037428062366693 40.96246397899277 0 0 0
146 0 1 0 1.5211728383842285 13.305885103791107 32.12519925381972 0 0 0
95 0 1 0 11.98593517660075 13.693874382224202 43.157172630933516 0 0 0
109 0 1 0 8.475665274163074 18.474720629996916 11.819081994158351 0 0 0
110 0 1 0 8.703142923350365 17.61198144042753 2.753663289062511 0 0 0
111 0 1 0 3.0435428915131832 17.56904167307742 12.28380951369312 0 0 0
140 0 1 0 4.453466319055847 26.349509735000954 10.192045534375527 0 0 0
134 0 1 0 4.968443778350478 13.816076092632517 11.744513847744177 0 0 0
139 0 1 0 5.934219912442505 20.787262593965085 9.064997089086503 0 0 0
115 0 1 0 5.4984127512673195 19.96073633276376 5.458730823445234 0 0 0
242 0 1 0 7.8811765408146535 26.337624394802223 9.391417157359344 0 0 0
143 0 1 0 4.886768543417169 22.847591712959474 12.877097869739746 0 0 0
118 0 1 0 2.5574784256998373 24.907060048375776 2.853969894312391 0 0 0
120 0 1 0 1.2145862337296713 16.082301203817817 4.802970650413941 6 0 0
127 0 1 0 2.553072430919841 24.310384785728967 7.3390810390775005 -3 0 0
121 0 1 0 11.207166518478546 22.094966031154396 10.920438241301607 0 0 0
122 0 1 0 9.84158601427522 20.463476131765663 4.541858977805135 0 0 0
123 0 1 0 9.0256242856537 24.542887460005257 5.839747388299584 0 0 0
124 0 1 0 9.470108484977196 17.308305697154367 8.181808900444777 0 0 0
530 0 1 0 12.626399686282165 18.229280646978744 7.232493275272108 0 0 0
190 0 1 0 11.750577563957826 18.965483491097984 1.3495920846569425 0 0 1
138 0 1 0 1.1881677936005446 18.525246562833782 8.620286688848061 -1 0 0
141 0 1 0 4.37072753272123 16.211009269123085 6.602335149543519 0 0 0
129 0 1 0 11.426599471379467 23.448520560276354 3.1278617065083125 0 0 0
130 0 1 0 6.248384251591132 24.068051101505173 0.8067085341223421 0 0 0
125 0 1 0 2.5319581331765066 19.727818520163375 2.2195782030636053 -2 0 0
132 0 1 0 1.1328957906998474 21.654918363827594 11.648523761121563 0 0 0
133 0 1 0 0.45369459111654187 21.870920545999716 4.666307945553072 0 0 0
204 0 1 0 2.688824955372155 15.400672565717448 0.41897646735391425 0 0 4
217 0 1 0 11.964049476414333 26.918579136087054 9.404856899569655 0 0 0
136 0 1 0 9.368905117831595 23.90428539932496 13.5818699385733 0 0 0
26 0 1 0 9.976702438531705 14.349296339387951 3.033043271525452 0 0 0
119 0 1 0 11.518237959652422 14.246449118209426 13.029116667591023 0 0 0
239 0 1 0 6.716522070251433 27.39108347628136 4.238013595791394 0 0 0
291 0 1 0 4.097725182014958 26.441623319535633 26.630618390717014 0 0 0
149 0 1 0 1.3052439770573148 17.677412116415816 17.266460385089292 1 0 0
273 0 1 0 9.968591057078639 26.936686673148543 21.918482510680892 0 0 0
147 0 1 0 8.078667105561745 16.151309215759767 24.01123513949914 0 0 0
148 0 1 0 2.4475277159892865 20.61623473044028 20.287844858894278 0 0 0
283 0 1 0 0.6925886382977438 23.98679503482414 29.711358149524955 0 0 0
128 0 1 0 4.945758975377859 16.994298664425955 15.497028534412177 0 0 0
151 0 1 0 11.28457877643306 21.861249970410203 30.020869721896336 0 0 0
699 0 1 0 11.624621020515576 25.584843196570496 16.296062587715543 0 0 0
112 0 1 0 3.9751720802642514 20.86585322769739 16.784344615788868 0 0 0
274 0 1 0 7.868359676146682 26.6038536596092 26.866017131870233 0 0 0
155 0 1 0 6.674971330512826 16.75813729269454 27.483521675344274 0 0 0
156 0 1 0 2.373075646464237 19.257217119560956 26.549547883195448 0 0 0
45 0 1 0 4.736669889998811 14.807374459111465 18.453049422410647 0 0 0
157 0 1 0 11.539995504162494 20.381225851473296 25.2465312444789 0 0 0
159 0 1 0 4.469744731986183 15.668736803039574 22.15927900375975 0 0 0
160 0 1 0 6.207858867599716 19.631890035778724 24.32558841032238 0 0 0
161 0 1 0 4.713284015422621 26.03321699490997 21.055087438206748 0 0 0
162 0 1 0 0.810364584206549 16.082901804762063 20.630350426371717 0 0 0
163 0 1 0 3.7283553427960126 22.908106540705443 28.27528327346218 0 0 0
164 0 1 0 6.536966517687626 23.775276653439192 18.74749322055949 0 0 0
165 0 1 0 11.290477516780584 20.746765902265185 16.959051755283685 0 0 0
166 0 1 0 11.984912605606201 22.734756059591117 21.327652367634673 0 0 0
254 0 1 0 8.73332174561863 27.331229238684315 18.120467583949516 0 0 0
168 0 1 0 9.71272752050271 17.288588673234653 19.947966542160646 0 0 0
169 0 1 0 7.194038038676751 23.413596474549617 24.84366047016229 0 0 0
170 0 1 0 11.817041100687364 16.836320816449067 23.682443406200864 0 0 0
173 0 1 0 0.21193351093336396 21.068612435240524 23.654562954325534 -3 0 0
172 0 1 0 3.2259289104706963 23.487619698901227 23.31335215159244 0 0 0
574 0 1 0 11.942760936814974 25.3477051078194 28.327018256993803 0 0 0
145 0 1 0 0.6783428662567422 27.208034711103153 25.867960522463907 5 0 0
182 0 1 0 7.545105923550422 22.1794085259787 29.530647198912302 0 0 0
578 0 1 0 11.492952479946345 14.857966975469273 16.95477595662698 0 0 0
113 0 1 0 6.375440794646047 25.480272223833083 15.10371256658278 0 0 0
1275 0 1 0 0.36689894917246796 16.482795033635732 26.376458855319278 8 0 0
171 0 1 0 0.5417715467273171 23.814215238128032 17.99160938793839 -2 0 0
154 0 1 0 8.018905971404209 19.48734827941634 15.818408805830787 0 0 0
694 0 1 0 12.328239568858885 27.108610412393517 25.27444176302309 0 0 0
174 0 1 0 12.058941351642405 15.463391637320852 29.64725614369236 0 0 0
321 0 1 0 8.227116729128483 27.018704160413606 44.12117761525414 0 0 0
1422 0 1 0 0.8577771037259753 24.622072037342924 44.24486195487936 2 0 0
183 0 1 0 8.948409145235823 26.242774082174876 34.61197553972728 0 0 0
193 0 1 0 5.453302157429804 24.764849538858893 39.97259279506731 -1 0 0
178 0 1 0 3.990613609839255 19.43401034220245 34.084828928731085 0 0 0
167 0 1 0 4.932681106179332 17.349159017291502 31.21929625876068 0 0 0
180 0 1 0 4.1286718894283165 14.630546150182477 34.915785648918174 0 0 0
181 0 1 0 10.36446830907655 19.758168572900622 34.43969417169889 0 0 0
179 0 1 0 8.591206253990885 25.664595672955294 30.75878667504806 0 0 0
152 0 1 0 10.811586927664498 23.329990032805153 33.8751268623932 0 0 0
1429 0 1 0 0.80968806766108 17.401935361986407 33.87974177013506 1 0 0
185 0 1 0 7.12916441541247 15.04776011715914 41.03662630772134 0 0 0
186 0 1 0 9.290892887000956 22.073444433092803 43.98363069128691 0 0 0
205 0 1 0 2.463904796445191 15.577025282702426 41.380211491958846 0 0 0
106 0 1 0 9.440250946184342 16.111410767232368 35.45866440255759 0 0 0
189 0 1 0 7.832714400632793 21.85831196061262 35.74779272424073 0 0 0
201 0 1 0 12.846531871152314 25.231966417016586 42.32786610067517 0 0 0
191 0 1 0 4.419446714248678 18.383351913341716 38.18816727380683 0 0 0
177 0 1 0 11.590677475588274 22.67559291367677 39.0941128375362 0 0 0
607 0 1 0 10.815632437836047 19.648535789793623 40.994542033417524 0 0 0
194 0 1 0 9.296231209608685 25.094672930740366 40.42401146393974 0 0 0
324 0 1 0 0.19589447987345174 26.018183587085307 33.4186869073028 0 0 0
188 0 1 0 9.474507392101195 17.105271642814152 43.665723161787966 0 0 0
1413 0 1 0 1.5352459370006344 16.027398010977027 37.262649851486195 0 0 0
198 0 1 0 5.4662937582843325 20.929650437055578 43.53380347836411 0 0 0
199 0 1 0 1.9465713067298696 20.807519883603554 30.911471855814348 0 0 0
1421 0 1 0 2.598022712020307 21.41729481451387 36.941784164437905 0 0 0
296 0 1 0 6.29686648073564 27.043965409574753 36.50987222061165 0 0 0
202 0 1 0 4.381547723690056 23.815416325877713 34.74499647155575 0 0 0
203 0 1 0 1.3476399032766229 24.849534782465934 39.651793059052366 0 0 0
197 0 1 0 8.717107909417246 16.560050342265722 31.74835354386953 0 0 0
176 0 1 0 3.5769146890532357 26.984290668784922 41.70772563147502 0 0 0
108 0 1 0 10.61672535439455 14.09814650742873 39.12922422842707 0 0 0
1420 0 1 0 0.06315611004981003 18.971282407684306 41.9372498619909 7 0 0
308 0 1 0 4.364341631128128 26.67792883495676 30.892978283328056 0 0 0
206 0 1 0 2.567628051762708 31.8200136279425 4.370893616202885 0 0 0
216 0 1 0 10.906931340681373 35.62169319705112 2.3879805777727965 0 0 0
300 0 1 0 11.47928168116836 29.841930025686835 1.008090140911192 0 0 6
373 0 1 0 12.147332616629479 40.311626680766814 11.793795829167864 0 0 0
240 0 1 0 6.16505069858658 38.228029663510156 6.53967420074094 0 0 0
364 0 1 0 2.8510526518578705 39.9297354830178 14.23988756942921 0 0 0
212 0 1 0 7.0044201441184555 31.23833615978976 3.125144714455567 0 0 0
208 0 1 0 10.45672706521982 27.51021552157389 3.8611622385465703 0 0 0
214 0 1 0 10.265831962703402 35.61678706972759 6.3804224709614115 0 0 0
676 0 1 0 9.838419785471293 40.422175942246064 6.972645870498265 0 0 0
135 0 1 0 2.1044576763409544 28.12243491188122 13.436829888693044 0 0 0
218 0 1 0 8.313096050150179 35.155153677124915 9.663939597335716 0 0 0
243 0 1 0 5.3218819627460645 32.78083724647418 12.383704309525175 0 0 0
219 0 1 0 8.34367066624866 29.928191523574583 6.62619888562383 0 0 0
220 0 1 0 4.251337562116913 30.88888335264158 8.967163698337933 0 0 0
221 0 1 0 5.108795682628249 35.0554177243117 4.894274588302153 0 0 0
222 0 1 0 11.806620337638442 30.30224032522055 7.3279473445013315 0 0 0
231 0 1 0 1.9741184674231793 32.105536285163865 14.703163565358684 0 0 0
224 0 1 0 11.037126312110745 32.47200832309879 12.146962437419091 0 0 0
238 0 1 0 5.728189258635262 35.995122637349844 14.300187515396471 0 0 0
668 0 1 0 12.636428494326461 27.96137113498393 12.86328596567356 0 0 0
227 0 1 0 2.409696206939953 37.14807927884515 3.516012407790473 0 0 0
1451 0 1 0 1.0764710110144804 29.10018315433697 9.696497348401687 -3 0 0
235 0 1 0 7.434910503265129 37.04837534659344 0.35535573195294956 0 0 0
230 0 1 0 2.6442688183393668 39.79048988297384 6.7614741591498335 0 0 0
237 0 1 0 10.499528472710969 39.48623454283251 1.3819556774747255 0 0 0
232 0 1 0 8.12989596478937 29.889267242801775 11.984825740038962 0 0 0
233 0 1 0 2.586818956771575 36.46608780256494 9.17705559873066 0 0 0
236 0 1 0 8.26128538664668 37.86459710952845 13.00264395636194 0 0 0
114 0 1 0 3.289934395975182 27.44188675680264 5.568425793512716 0 0 0
229 0 1 0 2.7888980928648377 33.19529174942953 0.5163758167705246 0 0 4
209 0 1 0 12.873043650776877 38.0467174054559 7.6054012614195 0 0 0
289 0 1 0 11.49006872698402 38.682168089944845 14.823447957193805 0 0 0
228 0 1 0 6.956027264584356 41.08014648999904 10.338430285967794 0 0 0
281 0 1 0 2.6526198944333466 38.77894253664956 28.069022549247165 0 0 0
279 0 1 0 6.013789304953359 38.243148259166844 18.264478856704304 0 0 0
264 0 1 0 0.14269202842573794 34.986933138595695 29.35944644822149 -1 0 0
288 0 1 0 6.218137368276734 40.02970374643652 28.978492522048693 0 0 0
249 0 1 0 10.837678117004696 32.87539615411825 21.74464029116042 0 0 0
250 0 1 0 1.144951790262732 37.2258385832989 17.535574375040795 0 0 0
251 0 1 0 10.00224071421941 39.65486193181234 28.2062441047613 0 0 0
280 0 1 0 4.270445941507166 40.82411570478268 21.305494770086128 0 0 0
259 0 1 0 7.672553115753904 33.74733388839786 16.557640138297415 0 0 0
275 0 1 0 3.6907039509832367 36.023954664657985 23.029212070117165 0 0 0
309 0 1 0 7.423882261234466 35.907682168008186 29.320749507869483 0 0 0
256 0 1 0 7.87244847585392 30.375559577803664 27.6201429744773 0 0 0
257 0 1 0 2.332340138566734 32.796850399167226 18.73728160578631 0 0 0
286 0 1 0 7.214753597257307 33.39440273919751 22.324810380109877 0 0 0
307 0 1 0 2.421472654403847 31.29143756723392 29.522609877864955 0 0 0
260 0 1 0 11.657083655317587 29.413011075958636 28.394881764808627 0 0 0
261 0 1 0 9.617130887244281 32.609957017659276 25.679589893396823 0 0 0
262 0 1 0 12.070659175882781 31.41147395385659 16.8591618406938 0 0 0
360 0 1 0 12.268001167305972 38.36840599454841 24.77473689620099 0 0 0
287 0 1 0 7.996058893571201 40.311314927231 22.176234365820463 0 0 0
265 0 1 0 4.520942513507909 32.130367040748446 25.923146085139855 0 0 0
278 0 1 0 8.4604191585513 40.47843864618161 16.61276455262379 0 0 0
267 0 1 0 8.35333148792942 36.81408201405494 21.72928264505231 0 0 0
252 0 1 0 0.36040398186646055 36.04717615113293 25.314894398184727 1 0 0
269 0 1 0 4.583381378483344 29.36124396790363 16.85996119938876 0 0 0
319 0 1 0 10.57032949360111 33.0248449912466 30.000852697139802 0 0 0
271 0 1 0 6.328978908851978 34.998150659987616 25.577070138973685 0 0 0
248 0 1 0 2.3881435594466818 29.623846005559745 23.797860775085628 2 0 0
277 0 1 0 0.648844661275906 27.554481539105026 29.42466867968742 0 0 0
263 0 1 0 11.336055323244931 37.90904054017348 19.159871134432485 0 0 0
285 0 1 0 11.306458958672593 30.002540627917647 19.87138943544412 0 0 0
158 0 1 0 5.414166681639346 30.469104742416512 21.660073042571355 0 0 0
1491 0 1 0 0.07521172813802975 40.67107515618344 18.999205612187907 4 0 0
270 0 1 0 0.18440557157374785 30.321017441689072 20.629590566493903 1 0 0
297 0 1 0 6.393748041505606 30.52113023494544 42.90160164159787 0 0 4
293 0 1 0 3.6075406269476713 33.983414839708345 38.010672943990016 0 0 0
294 0 1 0 12.517097864148447 30.945740976352052 37.3482069333762 0 0 0
295 0 1 0 6.242452300808965 28.58666168159911 32.99240438823673 0 0 0
343 0 1 0 8.567084658991993 40.55617178675798 42.48604411877891 0 0 -7
213 0 1 0 5.747141656845201 40.079864992395194 44.635798994772394 0 0 4
320 0 1 0 7.187463047387384 34.81381728757521 34.4228189251717 0 0 0
299 0 1 0 11.381801561309842 35.659871764409715 37.257665393977476 0 0 0
392 0 1 0 2.8027130953145702 38.03274265974936 42.06862796651147 0 0 0
301 0 1 0 7.514567022256924 38.19085763549883 36.206648798316905 0 0 0
195 0 1 0 2.664831307894416 27.898019426943975 35.00416147984716 0 0 0
276 0 1 0 9.969802343671695 29.14489254883643 32.714051484413524 0 0 0
304 0 1 0 1.1353961718968326 31.105159476426103 33.71156328874067 0 0 0
316 0 1 0 7.3843285964587535 31.975469188148534 31.68064549738799 0 0 0
306 0 1 0 1.6842908983212865 30.258288089254584 39.82708833532978 0 0 0
325 0 1 0 8.009751665042488 37.48102538524477 41.01769441022843 0 0 0
817 0 1 0 12.727774656444783 40.419805668563136 35.34408100702526 0 0 0
713 0 1 0 12.963524674056606 39.32043354373117 38.83037959248302 0 0 0
310 0 1 0 5.896712818482179 35.217113188302676 42.95866101356392 0 0 0
311 0 1 0 10.891402574507236 32.493332879588166 33.72929243649902 0 0 0
710 0 1 0 12.517161021746542 29.558783753475314 41.35194509508876 0 0 0
313 0 1 0 5.275165470260544 30.36928202718481 36.850457058828624 0 0 0
314 0 1 0 9.361023472590803 31.952379585975237 41.61856585459904 0 0 0
391 0 1 0 5.37689241325007 40.447063850517175 33.456754862970605 0 0 0
244 0 1 0 11.371811765883082 33.811121225803426 44.207719229337194 0 0 -6
317 0 1 0 2.297139626197529 38.87677831031104 35.71941254395694 0 0 0
318 0 1 0 10.144545226603379 36.85104372743356 33.80022837648305 0 0 0
323 0 1 0 11.723890637753524 36.689823800051265 41.614564964420246 0 0 0
226 0 1 0 0.6786935893395164 32.897264458999366 42.92799007720659 0 0 -1
131 0 1 0 3.689778000636526 28.95727446294576 45.110011801902715 0 0 -3
225 0 1 0 0.39962756519660614 36.808552331638914 44.954196975784264 -2 0 2
326 0 1 0 10.654360329629103 44.021500085200024 7.513571986084288 0 0 0
327 0 1 0 3.3925877370288564 52.64232715668209 7.2356591788097875 0 0 0
352 0 1 0 0.6654101790476745 46.28179664317884 6.9770487789684195 2 0 0
329 0 1 0 6.811571664802141 47.83079689924609 10.417048506675089 0 0 0
330 0 1 0 10.07735844068077 48.3627296890771 1.1799883672729228 0 0 0
332 0 1 0 2.8322138510432393 51.52199562405062 12.69921920110066 0 0 0
331 0 1 0 7.277024794734767 43.34246658669126 14.182976128029111 0 0 0
448 0 1 0 8.35299912854402 54.039492863140715 5.090873490742515 0 -1 0
1 0 1 0 10.001091163696701 52.85916252622456 1.874242187322803 0 -1 0
335 0 1 0 5.803274954683246 46.9094998146994 5.726774085755678 0 0 0
336 0 1 0 9.938037814540074 49.32649694654534 9.252763037691423 0 0 0
337 0 1 0 3.0441732222991873 50.841873789220884 2.9278825271545306 0 0 0
351 0 1 0 0.64024240377951 43.22857765126909 9.777791538154329 -2 0 0
1529 0 1 0 0.19039475085187926 44.390113307032685 3.5913672261942344 1 0 0
340 0 1 0 9.74276211285216 44.525556373309435 3.392795342791432 0 0 0
419 0 1 0 0.43315586817149254 44.17952786190049 0.06132728498111481 0 0 1
1528 0 1 0 0.33816941653674704 52.95267134134727 4.661835176792569 7 0 0
342 0 1 0 2.0490107820339647 49.30605179864937 8.848473823759255 0 0 0
21 0 1 0 8.643812841302188 50.543233901378144 4.706369472885292 0 -1 0
345 0 1 0 3.6692321771399437 43.2752754254747 5.550130877837923 0 0 0
365 0 1 0 9.609955074038185 52.11672605247787 14.199120304727826 0 0 0
347 0 1 0 2.296096100995447 46.51679185918428 12.076379639850868 0 0 0
348 0 1 0 6.414281053760432 52.03331458396844 10.519609919864893 0 0 0
246 0 1 0 10.716839746311116 43.722617681271515 11.946454063768359 0 0 0
350 0 1 0 5.0469567906113175 44.659785823150806 9.911993956950354 0 0 0
374 0 1 0 7.168294018929445 47.649443666582556 14.5377495842123 0 0 0
344 0 1 0 7.199512564665932 41.41882176295663 3.7387869036291264 0 0 0
744 0 1 0 12.741816607036053 51.083362500825515 11.077039574710977 0 0 0
396 0 1 0 6.586258239168835 50.68272988685562 1.34671064827242 0 0 -2
5 0 1 0 0.6181803177736879 52.59670423668395 9.687653751474159 9 -2 0
772 0 1 0 12.719918036113372 47.173541066329925 11.15577751763299 0 0 0
328 0 1 0 3.4668156760018256 54.43604763399744 4.486609461139616 0 -2 0
346 0 1 0 2.6527903991598762 41.120131416146684 2.17500399124399 0 0 0
49 0 1 0 6.999363185003368 50.055585164864006 24.511376489681872 0 -2 0
380 0 1 0 4.350317608052815 53.013946609810084 27.840595282395068 0 0 0
361 0 1 0 11.216870967799892 49.58225028849036 23.72268117178609 0 0 0
356 0 1 0 2.472673482046864 47.4214014051782 26.810589458206042 0 0 0
386 0 1 0 9.207812771101294 49.58665621400272 18.386968166502868 0 0 0
1575 0 1 0 1.779718038306869 49.85428424297191 22.884036945510484 2 0 0
359 0 1 0 8.49871041219084 44.345676634912905 25.546774062900106 0 0 0
385 0 1 0 1.5257747324923159 49.61858481927723 29.70155009352679 -3 0 0
779 0 1 0 12.798232608344453 47.34831104288968 28.59451640376017 0 0 0
362 0 1 0 9.500131108075497 42.371617473688545 19.689229456719495 0 0 0
363 0 1 0 3.461626714424425 49.29033827675467 18.857209455698346 0 0 0
258 0 1 0 6.031911971143766 44.0290419229389 27.778268865941968 0 0 0
353 0 1 0 2.56134222164191 54.36154563896594 21.974250725381612 0 -5 0
383 0 1 0 2.6134432978095945 43.87817111741089 22.396193134312806 0 0 0
255 0 1 0 3.0683260117368483 42.74518952421578 16.5291938247659 0 0 0
379 0 1 0 5.070759179438289 49.04756925082203 30.092548987646357 0 0 0
369 0 1 0 5.52094345562387 46.38412869109094 23.906758971441647 0 0 0
799 0 1 0 12.284134228385932 52.36999379340296 20.875042040041283 0 -2 0
371 0 1 0 9.155352649848655 46.235551948786345 21.83746723959638 0 0 0
47 0 1 0 9.032842912924684 53.113028026469024 25.364795959831643 0 -3 0
372 0 1 0 0.9690568366600492 52.607087796576494 16.387112426060458 -2 2 0
378 0 1 0 12.551724671485673 45.213620428886465 17.435759017284695 0 0 0
375 0 1 0 10.132106675148076 48.16938253620987 26.771695817531892 0 0 0
377 0 1 0 9.138215487371195 44.83979580045147 29.982182510053303 0 0 0
376 0 1 0 6.047710147251078 44.18425111769368 17.64679943084888 0 0 0
367 0 1 0 3.377119794673155 48.51633830019782 15.223498028994646 0 0 0
399 0 1 0 11.854149621261127 44.52833725182008 26.678118340917727 0 0 0
1577 0 1 0 0.2882357837830461 45.20277232636621 29.620789971449298 2 0 0
384 0 1 0 10.402740150577204 41.65564572198396 24.528842787370696 0 0 0
358 0 1 0 10.539321065185796 48.0545334554664 15.230618878434102 0 0 0
411 0 1 0 3.5296239571623502 42.85256745527459 30.08876168810595 0 0 0
381 0 1 0 6.009035490119247 41.15330407414435 25.00319829898708 0 0 0
1486 0 1 0 0.025517901629641904 42.144635805642004 28.04510792325923 -2 0 0
305 0 1 0 11.67899074152152 42.44314257321257 40.60670886009371 0 0 0
388 0 1 0 10.435105711851474 48.92583103056874 34.26480799374528 0 0 0
370 0 1 0 8.289135356075787 50.921971397941135 30.894927202266874 0 0 0
418 0 1 0 11.899673200762905 45.559651336698835 38.80404307736628 0 0 0
7 0 1 0 5.558948286478801 53.740491486280646 44.530204421982255 0 -1 1
339 0 1 0 6.924542657987928 51.98630652507165 40.703192021683286 0 0 1
403 0 1 0 5.336648178676359 42.86772915275316 41.75334827605318 0 0 0
394 0 1 0 11.20461623495522 51.00230338470197 38.5993967873214 0 0 0
395 0 1 0 6.598731391660834 54.52096806332302 37.65212604014809 0 0 0
401 0 1 0 0.8248267708257161 53.80736638212743 36.02068948255187 0 1 0
397 0 1 0 8.473150290042373 45.48203452960162 39.19899917743425 0 0 0
420 0 1 0 3.138242549523855 47.28503847264693 32.60771506727041 2 0 0
315 0 1 0 8.015274619532441 42.59240704635521 32.642855279682045 0 0 0
77 0 1 0 8.985701733621832 53.62601987097908 33.52398510544168 0 0 0
412 0 1 0 9.24423194878995 47.285259802219954 42.902898891974736 0 0 0
414 0 1 0 9.816908237293452 52.86012368420075 42.67656970185905 0 0 0
82 0 1 0 5.418788738060911 51.88166417482968 35.13038684642107 0 1 0
404 0 1 0 5.623642526811692 48.312252910474974 37.99288271893977 0 0 0
841 0 1 0 12.93945869889245 51.7642085502332 32.879765183114465 0 0 0
1616 0 1 0 3.3086994809402652 48.710801581449154 41.59803823316098 3 0 0
407 0 1 0 7.117607445138319 46.450339638205726 33.38692358172937 0 0 0
247 0 1 0 12.19954914770608 41.665560271437705 31.616053422662667 0 0 0
409 0 1 0 4.392915123079863 44.09568923300459 36.93575443066788 0 0 0
410 0 1 0 2.374419141263875 50.364275029134376 38.03230325449727 0 0 0
393 0 1 0 12.291902880116675 46.00003921440431 32.394146208834705 0 0 0
387 0 1 0 9.436502485017856 42.08870764986962 37.017901921289294 0 0 0
390 0 1 0 1.57604308216858 42.50707951494941 41.86629809658619 -4 0 0
398 0 1 0 4.129787853707763 54.37769782818713 40.84990776622941 0 0 0
1583 0 1 0 0.4546143502245462 47.26500252895646 37.468503994717125 2 0 0
79 0 1 0 1.497475342889015 53.6962725834246 44.38615230711893 0 0 -1
341 0 1 0 10.394753053669792 43.62379549311766 44.5487466408679 0 0 5
416 0 1 0 13.01015317247717 45.52399960808239 42.79648109963534 0 0 0
303 0 1 0 0.9765795748376842 41.55696618861559 37.707143716022834 0 0 0
421 0 1 0 5.4956933851906 45.19415145315805 44.767751504847375 0 0 -3
408 0 1 0 0.8932104915377499 41.84539803947257 33.23273511898166 0 0 0
402 0 1 0 7.4753234300568465 54.69499286741269 30.719787631369844 0 4 0
422 0 1 0 21.280622201646633 4.059093106584595 7.622307599016604 0 0 0
423 0 1 0 25.125064186181472 0.18045628713572168 13.235032292370581 0 0 0
424 0 1 0 24.197751302150337 7.36672381673068 6.64211940075704 0 0 0
434 0 1 0 22.345307323307644 13.374898918562506 11.868756611009792 0 0 0
532 0 1 0 21.014821622500587 11.712469857234591 8.567156091176487 0 0 0
427 0 1 0 16.123822553252126 5.7823149288449445 5.006132564256699 0 0 0
428 0 1 0 16.024846419082422 6.31983618172297 9.805709430034986 0 0 0
554 0 1 0 16.351092798887912 12.247389438944543 0.7146694749432412 0 0 0
429 0 1 0 14.524303584771124 2.474196898075455 1.2142859603342526 0 0 -6
431 0 1 0 19.20651178520795 7.856676182955276 4.548553909919117 0 0 0
432 0 1 0 14.93762705009786 6.8982981835472525 13.69517726846679 0 0 0
19 0 1 0 13.363201000474003 3.834913648843269 7.817316876838335 0 0 0
562 0 1 0 19.59589424406601 13.548263148434586 5.71043003419182 0 0 0
437 0 1 0 17.710894928048006 4.270442635172127 1.176089873818645 0 0 0
436 0 1 0 21.4792539873972 6.375651957633608 1.9749953979355537 0 0 0
425 0 1 0 16.61139090797353 1.543480239277591 6.615908763493983 0 3 0