ITEM: TIMESTEP
0
ITEM: NUMBER OF ATOMS
1620
ITEM: BOX BOUNDS pp pp pp
0 52.7945
0 54.7943
0 45.1953
ITEM: ATOMS id type xu yu zu
1 1 0.27189167 11.04872265 3.26219675
2 1 10.95169108 3.64875244 7.21497769
3 1 5.85121444 11.61913131 11.53881204
4 1 7.04278630 3.32601401 9.02730922
5 1 3.46279125 4.88874745 3.04842299
6 1 0.37061739 9.75283746 11.17001840
7 1 7.84948626 10.92762725 8.10758487
8 1 12.10313912 8.04325530 3.13790968
9 1 5.60519206 9.80763176 5.53416449
10 1 1.56113336 5.14847243 7.62218735
11 1 7.52585598 5.98737316 3.19666357
12 1 5.79841994 1.44985718 1.09508212
13 1 8.79609165 12.02022559 4.02644928
14 1 10.88253028 0.59342227 2.53771609
15 1 1.72215659 12.87282490 10.98923720
16 1 3.86508534 7.84106433 10.69591970
17 1 12.29742288 3.87998438 1.71968117
18 1 1.57697171 9.21694920 7.23486362
19 1 8.06647166 0.33095757 5.50026801
20 1 9.81766522 10.61584768 11.94330998
21 1 10.92371000 0.68273698 10.53773615
22 1 7.69796604 6.48216569 7.26198080
23 1 11.09159650 7.43723034 8.18306102
24 1 2.98552898 3.85094340 14.36487415
25 1 10.69986131 7.21147782 12.21583764
26 1 6.77353435 4.60381709 13.07635615
27 1 4.16179043 1.98848515 10.87444113
28 1 0.06810490 3.52217760 4.29264959
29 1 3.40894086 8.41366477 0.79814900
30 1 7.59343294 0.30684808 11.74083503
31 1 3.74735361 13.62405475 0.15095230
32 1 12.55030854 11.14790033 9.13125841
33 1 12.96632920 12.17912906 3.02492143
34 1 3.57577148 13.67884905 7.83234549
35 1 6.75980778 8.67777329 23.08666315
36 1 9.97340899 1.97533451 27.21163818
37 1 8.69894977 12.78131842 23.25343380
38 1 3.89676205 6.60819258 22.27359970
39 1 12.40829133 5.57532002 25.37625704
40 1 2.99714377 9.16051107 15.40120238
41 1 6.77459024 7.66298286 15.53452852
42 1 3.43903373 11.59283005 24.05474647
43 1 0.46247982 5.18792432 23.64798877
44 1 8.08547767 11.63228195 27.13525812
45 1 5.49537950 3.45806827 19.70153518
46 1 9.82928001 2.19889526 23.78583444
47 1 10.16082947 7.92380372 28.42106441
48 1 11.74888803 7.20873811 19.90310621
49 1 4.94737259 6.99394445 26.41574894
50 1 9.62813297 6.58791869 22.86294641
51 1 4.34921091 13.38789132 29.25085011
52 1 0.43608257 8.46407552 25.40201837
53 1 3.89201054 12.64542855 16.07596821
54 1 6.26565126 1.58026761 26.50975517
55 1 6.69592643 1.11670783 15.31804303
56 1 12.38031025 11.94789711 15.63531404
57 1 4.20244220 7.13640963 18.17031841
58 1 3.19353931 10.67338170 20.00976712
59 1 1.79712478 1.61862362 18.91061743
60 1 4.24309396 0.41095725 22.81775111
61 1 12.24198866 9.97146671 25.20315904
62 1 11.77950884 7.44106594 16.29426151
63 1 12.10049940 1.80328041 15.31668717
64 1 9.63077269 11.08872249 19.84435232
65 1 11.77053377 0.98465357 19.07784004
66 1 1.83196915 4.05861380 29.92651985
67 1 7.87535556 0.05095870 20.95977233
68 1 10.43588881 11.41255680 36.84140075
69 1 8.10553959 7.13038226 34.55045099
70 1 7.79194026 6.93312278 39.62452732
71 1 2.12022712 8.45366460 31.45547685
72 1 12.35602478 3.88327204 30.34412442
73 1 4.39197445 10.59338202 34.08493940
74 1 3.45487208 4.52326947 44.32755024
75 1 4.47169415 11.59830948 38.01738245
76 1 10.93004533 7.19997102 44.90062664
77 1 8.00734182 10.35393093 44.99915240
78 1 5.26097192 6.85586282 32.42401213
79 1 11.88720962 8.52982868 41.30850420
80 1 1.19157187 1.64108928 44.40393030
81 1 5.61680686 1.46739135 30.80466453
82 1 10.73523363 7.54243540 37.13923778
83 1 11.37299119 2.82081056 36.83959294
84 1 8.35314579 11.27995460 32.98624166
85 1 7.60346389 4.46354368 44.22676472
86 1 6.07506311 12.61693552 41.80746031
87 1 2.66928992 5.04052766 35.40147849
88 1 12.49645815 1.85369117 42.09761414
89 1 12.01708409 6.66791837 32.99121314
90 1 6.89390581 3.67450576 38.61622018
91 1 5.54025483 8.13585766 36.96297611
92 1 2.31292704 8.89037518 39.86180265
93 1 10.32818804 4.67340585 41.18557298
94 1 6.11518693 0.47561452 40.36166267
95 1 4.75203295 7.87174914 42.76469677
96 1 1.23169569 1.77533532 37.75208604
97 1 12.00441341 11.03776379 31.16622693
98 1 0.20009115 12.67830513 31.17797770
99 1 9.44388016 26.23112730 11.37023357
100 1 6.15478281 18.44869287 2.31173960
101 1 5.31376642 23.84428759 0.64900451
102 1 1.02315741 15.26240432 3.79007786
103 1 2.94276543 18.78677370 7.19418785
104 1 7.46830997 24.67880478 6.22610453
105 1 1.56007747 16.42075582 12.25606145
106 1 7.00371837 23.63004187 10.70450681
107 1 11.95531452 19.14238870 8.40813361
108 1 5.13796074 16.84760342 12.95252103
109 1 12.46953295 13.91227277 0.06598514
110 1 12.74195258 25.51880140 5.20288294
111 1 10.62911668 14.22953177 13.32673811
112 1 10.27169792 20.33032913 4.91182520
113 1 12.49065075 22.94785284 8.12385518
114 1 9.13028083 15.14843218 9.18458887
115 1 11.44901527 19.98183738 13.03974796
116 1 8.65513033 19.56320893 9.42367200
117 1 5.34174751 20.67169762 11.74761433
118 1 5.33330039 16.24267435 6.08373933
119 1 9.83772713 24.68647598 3.10808078
120 1 2.71416524 24.00647872 8.34486019
121 1 4.87926769 26.23496290 4.22485664
122 1 0.37748067 15.61747139 8.23910319
123 1 4.43790567 21.82840529 4.11503207
124 1 5.16224621 24.05798536 14.01687034
125 1 6.00167876 21.64594027 7.67687366
126 1 11.77792500 22.06621255 2.08802286
127 1 1.07753574 21.93032269 10.43017133
128 1 1.52048160 18.95937574 1.83673699
129 1 12.80213830 16.53637180 11.03804812
130 1 12.72611422 15.66404654 4.52043391
131 1 3.46279125 27.09304163 10.33435730
132 1 1.64454867 24.69414718 28.25971718
133 1 11.51025689 22.49634781 21.72131313
134 1 12.12372898 15.97308639 17.12404722
135 1 10.07741416 19.27170325 22.15835168
136 1 3.20937765 24.48866856 22.16739074
137 1 3.30968720 17.91883199 16.89942658
138 1 1.55374213 15.61637550 22.49098909
139 1 12.13112021 24.79387281 25.12045165
140 1 11.54721304 15.87390871 22.56736915
141 1 10.98495161 14.02021754 28.93403106
142 1 5.50541046 14.52651687 21.27704333
143 1 0.39912642 14.65199582 27.86606612
144 1 0.79983667 19.06238903 25.88741589
145 1 0.32732590 27.28920523 25.70708664
146 1 5.99323164 16.10240094 25.42506797
147 1 5.25041302 18.37033702 22.11948373
148 1 9.69729376 20.07389180 27.86380636
149 1 2.83664848 26.55550955 17.72152908
150 1 7.16104598 26.32208583 19.11128456
151 1 7.37961521 22.69799083 29.19435599
152 1 2.77699070 22.53525176 18.75830927
153 1 1.95973184 20.08156301 21.56584130
154 1 7.98991963 22.24374608 19.60391333
155 1 3.94797271 19.98896064 26.80216876
156 1 11.65860943 21.05470977 18.28692229
157 1 8.53264709 24.20099848 22.46703558
158 1 7.38700644 16.99664392 18.05100282
159 1 2.46603109 14.25254537 19.13478611
160 1 5.77255063 25.55058209 25.35230354
161 1 0.94660538 17.63773723 29.48631763
162 1 5.93779742 17.24157444 29.67749374
163 1 12.27208152 16.89746623 26.77098400
164 1 11.48016403 23.61579536 15.78445853
165 1 7.65942606 27.16810983 15.24527860
166 1 7.07710273 14.74898173 15.17115830
167 1 2.43224261 20.67224556 41.44680182
168 1 10.51877618 25.91715596 43.50589969
169 1 6.22130388 25.30017214 31.70314709
170 1 12.26838591 22.68319637 40.16235139
171 1 5.43149816 23.36209775 37.64090560
172 1 1.42069999 16.60212496 43.70566291
173 1 11.00870914 17.19116368 33.45265715
174 1 10.41952252 20.82731343 31.74201505
175 1 8.28345705 15.14514452 32.13069463
176 1 1.77600698 25.11003592 38.53577255
177 1 1.82035436 25.76756752 34.27385575
178 1 8.08706151 17.09910926 42.68424913
179 1 12.22351059 22.63388150 35.88326039
180 1 4.44318512 17.26568393 38.30753628
181 1 7.84843037 26.03222399 35.61931984
182 1 7.91653528 19.19827889 33.16476309
183 1 11.77475733 14.66898205 36.14132555
184 1 13.14107899 15.81637469 39.63492224
185 1 8.21165653 15.04377506 37.41809278
186 1 11.72724228 20.31827438 42.93011156
187 1 9.40639606 26.06838822 39.66384723
188 1 5.15802265 26.10071686 40.87824494
189 1 3.52931232 16.38130393 34.42661587
190 1 2.25485310 21.08101104 32.77743937
191 1 6.71968396 21.62895404 41.03371678
192 1 1.44868108 14.52487304 39.64938474
193 1 9.68303924 25.25743258 30.77935516
194 1 9.06164798 19.00595090 36.81021599
195 1 9.90213642 14.38240786 41.16839877
196 1 8.52631175 22.45525208 44.99960435
197 1 0.91176102 29.11440336 6.08102762
198 1 10.27222586 38.51929701 1.63516595
199 1 7.41815519 36.35218245 2.31309545
200 1 12.27524919 38.28751713 8.81217959
201 1 7.57337102 34.93136625 11.39011951
202 1 2.65186773 32.55274569 1.55878590
203 1 8.20162557 38.59546109 5.33259345
204 1 8.83674341 30.75494470 1.70793039
205 1 12.13059227 33.36644104 2.60550905
206 1 0.99517632 37.80806700 0.51477447
207 1 4.45638375 40.71709639 1.75854912
208 1 5.75143283 40.66394592 7.46445575
209 1 9.31875719 39.95490767 12.59773792
210 1 5.88553086 28.89906176 7.86488611
211 1 3.68875171 31.85137865 11.15329613
212 1 5.62472603 32.58562227 4.21898126
213 1 8.09022918 31.89357026 8.67794955
214 1 2.35252292 36.70067420 10.32486629
215 1 10.09536429 31.98617262 11.92026037
216 1 0.22279279 31.74507770 12.95884837
217 1 6.29891179 37.64806764 13.53870407
218 1 2.05317811 38.92641866 7.21678550
219 1 8.07967028 38.42340699 9.37892866
220 1 13.16483652 39.33956768 12.28950598
221 1 2.72261236 32.87000468 6.35265137
222 1 2.61385569 36.39327817 4.18779650
223 1 5.27681027 29.86179761 1.59991362
224 1 5.08463830 34.76424363 8.21560163
225 1 11.62746068 35.88423913 11.62332725
226 1 9.34937801 35.47492571 7.81019979
227 1 9.46763768 34.43712166 0.44969324
228 1 4.92995041 29.45303214 13.51068298
229 1 12.62474878 34.71328494 7.70625060
230 1 11.40150022 28.26344788 7.76364863
231 1 10.90312014 27.45358813 1.74408663
232 1 4.05461760 28.02892828 20.87887274
233 1 3.68294432 30.89193045 17.24697843
234 1 9.87943478 31.83439241 27.50314786
235 1 3.76424785 36.22560762 27.38699594
236 1 10.80175470 34.50342277 22.66182733
237 1 1.77283931 37.60916369 18.82113073
238 1 12.38558970 34.36150553 28.77403970
239 1 1.11607573 36.69738654 22.66001951
240 1 7.97302539 34.06287659 16.76203286
241 1 7.95982676 32.37247244 21.98751345
242 1 2.42062782 33.01520958 28.98962128
243 1 6.87489979 37.68697160 29.22915637
244 1 3.76688757 33.26616747 22.40511802
245 1 9.30080706 27.77468273 27.36394634
246 1 4.15017565 40.06449627 26.99967222
247 1 12.49856993 39.92860641 25.38213243
248 1 7.08766162 38.59929669 19.58493130
249 1 9.75008826 31.24151809 15.39623090
250 1 12.12267309 37.23491862 15.38673989
251 1 0.80142051 39.35491009 29.97126320
252 1 5.61205535 33.20315403 25.34868791
253 1 12.36499984 37.28204172 19.35985871
254 1 1.19790720 32.66781372 18.86406627
255 1 1.22166473 39.82285341 24.71369395
256 1 7.03803480 30.15494712 19.36483019
257 1 3.24158230 30.04207086 24.45472488
258 1 9.78282085 37.32313744 24.69742364
259 1 10.42796964 40.52860400 15.94625770
260 1 7.15048708 29.55440159 24.46105222
261 1 3.10642838 40.76257566 15.90015849
262 1 5.23299084 36.64149635 23.38133650
263 1 1.86575763 34.59383336 15.68005738
264 1 4.97324190 30.34837100 28.18378908
265 1 10.49237893 40.39545385 22.23608760
266 1 12.30903767 30.08590630 25.54754723
267 1 12.58726469 32.87548411 17.20133118
268 1 11.18451483 28.10838001 20.40793772
269 1 0.08447120 28.60207666 15.69271207
270 1 11.58100152 27.68865568 15.17838955
271 1 5.53444744 41.08586203 23.39534705
272 1 7.07340711 28.42892667 44.21998543
273 1 12.29583905 35.06342051 33.36452632
274 1 11.81065759 29.01851334 31.40666592
275 1 7.97619306 29.68207231 38.32742221
276 1 2.08643864 30.26617955 38.16923866
277 1 7.58392992 38.72367975 42.68244132
278 1 5.96366672 29.02837631 34.01127106
279 1 8.95447514 34.41629983 37.77784736
280 1 2.28230623 29.41686790 30.82771413
281 1 9.41484318 38.22669545 33.22487284
282 1 5.14218430 35.24972113 39.14545714
283 1 1.59122623 37.23108302 38.64740494
284 1 2.43118672 30.04426263 34.35611120
285 1 10.61855778 37.80532728 38.16155546
286 1 5.51385758 33.62233042 44.63804195
287 1 2.25907665 28.88755496 44.86401845
288 1 12.65695343 28.28153000 38.06257775
289 1 1.61339992 33.76479560 43.42725986
290 1 9.29288789 30.72809550 42.03117705
291 1 10.22101520 29.52919621 34.80444858
292 1 2.47975766 40.43161808 43.01507873
293 1 4.79268471 31.83603624 40.43894663
294 1 11.38935748 34.18013640 40.90762189
295 1 5.12476212 39.46504663 32.13702197
296 1 7.35480179 32.19877451 35.16103949
297 1 3.37198471 34.14561599 35.01144305
298 1 9.29447173 35.24917319 30.73506377
299 1 0.71114191 35.56040481 30.98318596
300 1 5.40351707 37.51491749 35.22883244
301 1 4.25418081 37.29738412 44.44144240
302 1 7.81411394 28.83002095 30.65235637
303 1 5.16013443 34.06506837 31.05595040
304 1 12.67912712 40.52038485 31.09798202
305 1 9.12077782 40.98668434 35.95376506
306 1 3.29015324 40.99599937 34.77235991
307 1 6.61779057 43.09681284 13.52243376
308 1 2.36413771 52.91869111 12.49424068
309 1 9.42117853 50.20253766 13.88670788
310 1 11.81118554 46.76638711 14.42227218
311 1 4.87557207 53.64909913 3.59528611
312 1 3.39996580 42.23818615 12.18239312
313 1 6.58611387 46.88255102 13.73575558
314 1 9.44440810 46.40967621 6.49275680
315 1 1.32725373 45.44694036 10.63671386
316 1 9.14136767 49.68801918 9.15159630
317 1 9.66878473 49.84089528 3.61065252
318 1 2.67562526 46.17460867 3.01769018
319 1 1.84886339 50.78719284 1.67267805
320 1 7.96880183 53.08471784 0.77464744
321 1 6.78092558 46.19817022 1.91989634
322 1 11.43792843 44.79543614 0.84741188
323 1 12.61524577 51.72636714 7.27734721
324 1 1.15725544 50.44856407 7.15396404
325 1 5.39982146 43.41133212 4.88741974
326 1 2.93009475 45.92693843 7.35508312
327 1 12.34757766 42.90612867 13.81303954
328 1 3.55306985 48.32473700 11.84342837
329 1 6.15742253 51.81896951 10.17120227
330 1 9.30819830 43.35215427 8.70732650
331 1 5.89661770 47.58830161 8.31864692
332 1 1.15250393 54.36252092 5.51789418
333 1 5.56981975 43.90612465 9.95968826
334 1 7.65837017 42.34996653 1.75493350
335 1 11.22886220 43.56530410 4.15615979
336 1 0.88061226 41.89626972 6.18136118
337 1 1.38321590 43.99763113 14.78970997
338 1 13.13738338 42.34887064 7.89697477
339 1 12.41515462 48.65459869 20.69176420
340 1 3.88356342 44.18009615 26.14096152
341 1 11.46907718 52.38554257 26.26886422
342 1 6.57925059 42.40037728 16.98846132
343 1 12.69760519 50.59157719 29.28881417
344 1 7.57442691 53.06553983 24.34580420
345 1 10.29281572 44.50886195 23.70764657
346 1 11.71773927 45.18337978 20.28093892
347 1 7.39439767 47.36748058 27.84211261
348 1 6.25086880 46.11597877 24.01678242
349 1 0.31623905 52.43540538 19.32505833
350 1 1.19896310 49.53185543 17.81237164
351 1 5.39718174 50.54883764 26.69415199
352 1 6.54282238 52.80636280 18.17845357
353 1 3.33608445 53.30499093 28.93583887
354 1 2.58957022 49.63158105 23.78357467
355 1 5.74192982 48.84637873 21.00406372
356 1 3.18614808 46.34337511 18.19517583
357 1 12.31167740 48.84418696 25.85532722
358 1 3.83868809 51.71047680 20.32749008
359 1 0.88800349 54.55430097 25.05356260
360 1 6.61937441 43.46941408 28.39937066
361 1 7.66576140 44.54667001 20.85220751
362 1 6.65685851 49.52363628 16.39821070
363 1 8.82724040 46.04145852 17.54843108
364 1 9.02469183 52.32965239 29.16045951
365 1 11.29855095 44.86338107 27.25547762
366 1 10.90628781 49.31651383 17.51227484
367 1 2.04103537 48.86117320 27.32688619
368 1 1.97979375 42.18941923 19.59125864
369 1 12.18813827 52.19759812 20.11507217
370 1 3.88567520 51.55924453 15.52187383
371 1 0.21276183 47.14172806 23.04824714
372 1 8.83727135 41.15380696 25.41422110
373 1 5.48957211 50.42116692 32.19442000
374 1 10.70514076 49.22884295 36.92727182
375 1 5.92565468 50.25404430 38.23296404
376 1 3.83024098 47.09296113 39.19517197
377 1 3.59741723 43.03982676 37.78327080
378 1 9.16776493 54.57128720 35.73185613
379 1 3.44220140 45.84967847 44.59329860
380 1 3.41686004 52.87595156 37.33583733
381 1 11.77845295 53.06389601 33.78619847
382 1 0.96772318 51.18664329 42.47680271
383 1 6.52540020 44.54447824 42.49623668
384 1 8.61553446 47.97350554 31.34520032
385 1 11.15653374 44.36913648 35.73727957
386 1 11.53823797 41.91763950 39.03382475
387 1 1.77389520 50.64198795 34.46593578
388 1 10.35088967 43.34777073 42.54866323
389 1 9.00674170 54.35211000 31.94720171
390 1 4.86184550 52.64471961 42.90028267
391 1 1.25175759 46.17296484 35.72733660
392 1 7.75234438 41.87763966 31.43378310
393 1 6.06819983 47.05898867 35.86473032
394 1 4.09896498 43.54229049 31.40485811
395 1 8.53211914 46.16748541 38.57961199
396 1 8.06013631 51.23541021 34.61236855
397 1 0.69266384 43.78612513 41.71706971
398 1 11.55988372 47.75542422 43.23382398
399 1 12.02817093 51.03979456 39.70994644
400 1 9.98924734 53.55649676 42.04066806
401 1 7.39386972 48.06555996 41.75141814
402 1 3.71514897 54.26717883 33.74145512
403 1 6.43459366 50.10226409 44.89475126
404 1 5.83009664 41.29024477 40.80367270
405 1 23.20793425 6.95120490 4.03322857
406 1 20.41510520 7.49257258 13.35069162
407 1 22.20589464 11.56104936 3.66036735
408 1 16.06853402 4.15669560 2.17344198
409 1 26.08893012 12.37584060 11.57316047
410 1 26.15069968 10.05201434 7.38265225
411 1 16.44812647 6.78134257 9.88014453
412 1 17.10277828 4.66683053 5.45281294
413 1 25.20778991 2.00601932 7.36999757
414 1 18.26636906 9.69913904 2.34382826
415 1 15.96188913 2.83944063 12.44091023
416 1 20.71867358 1.04383142 14.38837571
417 1 18.66074397 10.44598535 9.60626101
418 1 15.43658385 9.09147026 4.91272911
419 1 21.92766763 4.27340746 1.02412550
420 1 15.71217114 9.59009839 12.88111245
421 1 21.80940795 7.80490009 9.81189963
422 1 25.07210805 6.50956284 6.83850084
423 1 13.48160352 5.28874584 10.71625758
424 1 14.90283146 1.75396554 8.73670344
425 1 13.99582195 2.36875759 5.30321650
426 1 20.19178447 5.23778714 6.84392428
427 1 21.56866503 11.21913292 11.50672338
428 1 18.03407325 1.11561195 3.26174480
429 1 20.47370710 2.49533242 10.79760912
430 1 21.18854463 0.70794236 0.37060146
431 1 20.76354890 12.76104453 7.30130072
432 1 26.06147698 13.61419178 7.60184946
433 1 25.61166784 4.26409243 1.91402096
434 1 24.70307449 8.99284052 12.38983954
435 1 17.32134750 5.61477192 14.36894173
436 1 16.21055122 13.00542711 1.40647774
437 1 20.70811468 13.42405556 14.84981972
438 1 20.86966585 8.15832333 0.11163239
439 1 16.69942829 13.30241221 10.34475222
440 1 24.97021466 10.51283440 0.05694608
441 1 17.15187716 8.15174801 26.40354621
442 1 15.92123736 0.71561356 17.25872921
443 1 24.77909857 6.32271428 16.08862289
444 1 24.60857234 0.99342066 22.23021221
445 1 23.46715525 9.05092247 17.95970831
446 1 14.02327509 2.28875791 27.19220420
447 1 20.26200115 7.01312246 19.30336458
448 1 20.25091431 9.80270027 16.25720136
449 1 23.83618880 4.41587264 27.70065132
450 1 19.65433646 5.33258128 28.69539988
451 1 20.91929268 10.81365511 25.90549401
452 1 15.90011956 5.07011658 25.55884606
453 1 23.45237279 13.13967314 17.15839565
454 1 20.53178105 1.32821383 23.99689649
455 1 24.75270133 1.12328315 18.91875258
456 1 14.48100340 4.21258578 19.12755487
457 1 21.65524801 9.38571565 29.83658120
458 1 25.72781574 9.05092247 29.24994621
459 1 17.28914286 4.32107850 21.90480605
460 1 21.38177250 10.79776476 22.09101069
461 1 20.72395303 4.95230883 16.41764468
462 1 25.29331701 10.24160261 21.45149719
463 1 16.11024167 12.96159166 19.94242613
464 1 17.04892789 11.51447420 15.91326513
465 1 22.71483362 5.58956654 21.75159398
466 1 14.10141095 2.72711231 23.03152488
467 1 16.38794075 12.85145512 24.04209179
468 1 14.57867323 9.59996136 28.73110416
469 1 15.03428976 8.06298124 18.41075741
470 1 17.63811451 9.68598841 21.40449408
471 1 26.12166271 2.01916996 25.31885901
472 1 17.20678344 13.66624636 28.92318419
473 1 20.66587908 2.36820965 36.77631952
474 1 15.35950388 13.00433122 42.25850941
475 1 16.58011272 5.31121150 39.71943745
476 1 17.81761580 8.19722728 30.22842445
477 1 21.66105540 2.63615377 33.19865957
478 1 20.42830383 4.87121327 40.48278607
479 1 14.16845997 9.46681121 38.58955495
480 1 25.13282172 0.65479189 44.63984976
481 1 13.83902228 11.13858530 34.75382984
482 1 23.23538739 5.58737477 43.05711036
483 1 17.53146961 10.50406731 40.43533100
484 1 15.05487962 7.43010708 35.03765633
485 1 25.17611321 7.27942275 32.56908904
486 1 23.59069438 12.48762097 36.11556423
487 1 22.24285079 8.13037823 39.62814295
488 1 23.47349059 11.76543210 42.11569226
489 1 19.65539235 6.83613687 35.66135147
490 1 20.73187220 10.31283520 33.87704102
491 1 19.53290911 1.11506401 41.83909702
492 1 23.31827476 2.38190822 40.79237387
493 1 21.69589977 6.53038467 32.26356881
494 1 15.95766557 0.18520473 43.04807130
495 1 17.09961060 3.35998648 30.62117161
496 1 20.71445002 11.64762435 39.47131526
497 1 16.95284189 13.44432945 36.69858360
498 1 16.89476795 1.43725449 37.55819821
499 1 17.17563468 6.53367233 43.71515393
500 1 25.40101778 2.36053844 34.14640501
501 1 25.49499199 8.71338959 41.86440639
502 1 17.51510332 11.31940649 33.24340292
503 1 17.92901220 11.20105081 44.11829600
504 1 13.76563793 5.09313019 42.98660569
505 1 14.39442042 1.50081588 33.33514937
506 1 26.15333941 11.50844683 38.95970446
507 1 13.70439631 0.25808115 39.04602748
508 1 18.05994256 0.16986233 32.31644731
509 1 13.32585974 4.71011803 38.79835724
510 1 26.37718809 5.37422494 36.15533609
511 1 21.15739587 20.51389003 9.61258836
512 1 25.78166613 20.35717834 9.86974961
513 1 18.18612141 16.16377056 2.38360012
514 1 25.43850188 15.50514307 0.93735052
515 1 18.27587206 16.18788005 6.90764965
516 1 14.31786840 17.21253346 1.70883429
517 1 21.85217150 17.57965527 8.01312669
518 1 15.41124249 17.93965382 8.26079693
519 1 14.95879363 22.84538750 11.49587651
520 1 22.93498669 23.05908527 6.76121688
521 1 21.43984645 15.48432124 4.08520317
522 1 21.34376046 21.47991354 1.97051508
523 1 16.72899321 24.59113390 14.44622569
524 1 26.17920871 16.40048193 11.65270420
525 1 24.48080965 19.56156510 0.51703423
526 1 23.79184142 18.04759859 4.52676125
527 1 20.59460650 23.44922068 11.64140537
528 1 20.81792724 20.32704147 5.63675782
529 1 18.67552643 18.41252863 11.07917584
530 1 22.93604258 14.69254360 10.11425619
531 1 16.65560886 20.03991934 4.85713889
532 1 23.55057056 25.64263651 9.25961306
533 1 19.80321695 24.82729733 0.58844281
534 1 24.63496959 25.27825442 4.62438310
535 1 16.28763119 24.97962548 4.05221060
536 1 17.58004055 21.44977668 8.35435121
537 1 17.14554182 14.87610451 13.62276733
538 1 18.93527537 20.07717946 14.64327720
539 1 20.83006997 26.31934612 4.16881447
540 1 23.17097810 17.03445198 13.38097247
541 1 17.49451347 19.94676903 0.71408574
542 1 22.42499182 21.45251639 14.98133804
543 1 14.68637401 23.77141117 17.74231892
544 1 22.54747506 18.10074906 18.33211759
545 1 25.60058100 19.40759312 26.13192246
546 1 13.36017617 20.31717850 29.41129343
547 1 20.89183954 14.36706546 19.70108322
548 1 17.99764505 18.76978746 25.28586644
549 1 14.68162250 27.01578167 22.96915537
550 1 25.54039526 23.32702940 16.13743382
551 1 20.16697106 17.45582015 27.95058133
552 1 17.93481959 21.02840851 27.96097625
553 1 23.34361612 21.16429837 23.43285914
554 1 26.01607371 23.79606860 29.72088123
555 1 26.25048129 16.46568715 19.18902047
556 1 18.45854103 21.07333984 19.14382517
557 1 19.93995471 24.75222914 21.22868436
558 1 25.72939957 15.70404638 24.13971364
559 1 15.46614877 17.27883456 28.93583887
560 1 24.33932039 23.36154980 20.27732330
561 1 19.60682141 16.08870237 23.42833961
562 1 25.95588798 26.72975543 17.33284950
563 1 21.38388428 24.57305178 17.71294198
564 1 25.16766609 27.00427487 23.13502212
565 1 16.14191837 24.09962903 21.03796020
566 1 19.42362450 22.06566461 23.79894107
567 1 16.48613852 24.55387377 25.74640655
568 1 16.10443428 18.20321440 19.90220231
569 1 17.75162268 24.73633879 29.82528238
570 1 22.63564187 25.51113019 28.38716793
571 1 22.93921025 20.86512150 28.67235027
572 1 15.00419690 18.46622704 15.49656446
573 1 17.85246018 15.72103261 17.61803185
574 1 23.11765566 13.93693021 29.47592271
575 1 14.16740407 23.88209565 28.90329826
576 1 26.10740820 20.49635586 18.00580752
577 1 14.46674889 19.66841399 25.47342694
578 1 23.15883537 27.13084970 19.49454070
579 1 22.44716551 14.02514903 23.23851935
580 1 26.04986219 17.86020208 15.35917075
581 1 19.06726162 27.35331456 26.81211173
582 1 15.59549530 24.19716288 41.36364247
583 1 15.29720637 18.21746092 41.99908838
584 1 16.06483840 17.80102424 35.56598938
585 1 21.89704682 22.30895130 34.17171438
586 1 25.15393952 23.28428984 44.06541750
587 1 15.50310492 20.34786330 38.22889646
588 1 18.42686434 24.01141020 39.50611564
589 1 18.64860123 22.10621239 36.28369075
590 1 20.79100204 18.08814637 31.82562635
591 1 24.53624388 25.39825394 36.68050548
592 1 21.05708633 18.82019822 41.16659096
593 1 13.31741262 23.87661623 44.39308343
594 1 18.06363818 16.05746961 42.10032586
595 1 17.76112569 21.24210628 41.48883345
596 1 22.14095741 19.95663200 37.20296315
597 1 25.46173146 23.22401611 33.53039307
598 1 17.81972758 20.63827309 32.69970346
599 1 17.75954186 15.67884100 32.37113363
600 1 20.97050335 22.92867483 42.85779908
601 1 21.43931850 16.54020740 35.09098678
602 1 25.07949928 18.80540376 32.11035674
603 1 16.21635862 24.51387393 36.78987811
604 1 13.68327851 14.31610676 31.55716627
605 1 24.06954049 16.81801450 41.69447206
606 1 21.44407001 15.58349892 44.87215361
607 1 17.14343004 16.65198777 38.65463618
608 1 13.66955194 20.15772708 33.32339860
609 1 13.31266112 25.72099236 32.74715852
610 1 20.99478881 15.16322664 38.97235914
611 1 25.87616828 14.64487256 32.62241949
612 1 16.45340592 26.11003189 44.93859070
613 1 25.03515190 16.86732937 38.18144139
614 1 16.98874215 26.63386540 33.80292073
615 1 17.25377054 33.87000066 7.86081853
616 1 16.99824517 30.28645344 9.71834536
617 1 14.43823986 28.11495533 2.47625049
618 1 13.21551924 30.64590405 5.37417312
619 1 20.41193753 31.33083280 8.08363136
620 1 20.51911037 29.85631818 4.92628770
621 1 18.06258228 32.25850030 2.39535090
622 1 21.23025228 38.85792579 5.74974607
623 1 16.89160028 38.51600936 11.27893907
624 1 15.79928207 34.13082153 11.62377921
625 1 23.72584830 29.27330683 1.87198933
626 1 15.10397851 30.66782177 14.12443516
627 1 17.83292621 37.15327511 3.91120126
628 1 25.37198081 37.19601467 9.01646235
629 1 13.44147970 37.05190566 3.91888446
630 1 17.53516523 39.02340457 0.91430092
631 1 17.79966567 39.98723631 7.47213895
632 1 13.25353128 31.57850303 10.23492764
633 1 22.38856361 37.10998762 2.36823372
634 1 18.22466140 28.15221545 7.08481523
635 1 13.43778408 40.23381066 2.15717167
636 1 20.43147150 38.00642237 10.26746825
637 1 15.07758125 33.67274118 4.59681396
638 1 23.58752671 29.04152694 7.32615813
639 1 15.50627259 37.08587813 7.39033546
640 1 20.87969681 35.05848903 7.59732993
641 1 22.95663243 34.48972419 14.10454922
642 1 18.97381535 32.25795235 12.71027422
643 1 25.08002722 32.14726787 11.61383624
644 1 18.98226247 28.68372016 1.90452994
645 1 24.21366948 33.73082314 4.10689691
646 1 25.45064461 37.32423333 12.68360899
647 1 22.89116725 29.40919670 10.62089550
648 1 24.64341671 37.23765834 5.21508567
649 1 21.00534771 28.49687160 13.76377666
650 1 24.93906591 39.77956591 1.60443315
651 1 18.85449979 39.00477451 14.89637088
652 1 13.72868178 27.94838066 11.41497692
653 1 21.62462720 41.07709494 2.34608802
654 1 19.22828484 34.30342357 15.54582734
655 1 16.85253235 40.56312440 17.85530717
656 1 26.21088541 32.29192482 26.19203221
657 1 22.09449825 33.10123663 29.11210054
658 1 13.85380474 32.70452590 22.61889179
659 1 13.99212634 38.33409228 28.36818590
660 1 17.45914115 37.23985011 26.65844771
661 1 23.85783455 33.40753677 23.09886588
662 1 13.93141266 35.77958201 24.65719982
663 1 21.90813367 31.01412174 16.15370413
664 1 16.40536293 32.15767878 19.29387357
665 1 22.00949910 39.44203303 23.97249103
666 1 21.06025400 32.46288304 19.83531326
667 1 16.49616947 35.77300670 21.20653867
668 1 19.58570361 36.75218084 22.58273555
669 1 20.15799599 36.52040095 18.87220142
670 1 23.15672359 35.72697949 26.57302859
671 1 23.65299189 30.00097514 25.21716959
672 1 18.97698302 29.80316771 22.83266556
673 1 26.05144603 40.59819276 28.26016914
674 1 19.53554883 40.43490574 20.19461590
675 1 25.24949757 32.94452493 19.46290399
676 1 19.32067522 33.92150730 26.21598572
677 1 21.80518439 38.92751455 28.30400858
678 1 16.83880578 31.59877692 24.83617321
679 1 25.22098854 39.27436247 21.26936013
680 1 15.35105676 29.85412641 28.13859378
681 1 15.56117888 34.95876340 15.39532699
682 1 15.94235516 33.38616699 29.66664687
683 1 26.10107285 30.53247985 15.32030279
684 1 16.25384271 39.43490977 23.34744003
685 1 19.37610945 28.04372274 17.55972991
686 1 14.96724075 28.27276291 18.94180218
687 1 23.02209761 38.85463813 15.08438333
688 1 21.84425232 27.60810806 43.91039762
689 1 23.63504176 32.42836263 43.64781293
690 1 16.21319095 39.33518414 38.87157362
691 1 21.93664269 38.46066711 38.83541738
692 1 14.42345740 28.43276227 41.98191417
693 1 15.30882116 32.49466373 33.71072232
694 1 17.29653409 30.96590276 42.20879458
695 1 17.53674907 36.87875567 42.94141039
696 1 20.87072174 31.30014799 34.86907786
697 1 17.59165534 38.66998134 34.06686128
698 1 19.48644995 34.11493118 44.32800219
699 1 24.95596015 29.53741536 36.69270821
700 1 22.30831597 35.12369424 35.16736684
701 1 23.18892823 31.94507690 39.97072332
702 1 25.07738750 32.80863507 33.75682152
703 1 25.84290775 35.15602288 41.73017635
704 1 19.00760384 30.38727495 38.93801072
705 1 25.84132391 40.84312328 40.32821814
706 1 14.13678327 36.78670125 41.05721833
707 1 14.96671280 36.09081364 36.10923689
708 1 24.35463079 38.94450078 34.28018310
709 1 20.22082145 40.20367380 41.65967168
710 1 25.14602035 28.12372242 31.10792499
711 1 13.55657171 31.30398359 43.38748800
712 1 13.65793715 31.91822769 37.32905804
713 1 16.27548846 33.92534290 39.94857762
714 1 16.77545237 37.01409759 30.46434392
715 1 18.43319968 33.89191838 36.46356804
716 1 16.19999232 28.64207650 36.80569646
717 1 19.87132186 30.23878240 31.15086053
718 1 23.50939085 35.53958298 38.70118734
719 1 19.87079391 35.21794044 39.90293037
720 1 13.95886580 39.35874569 43.83944100
721 1 21.72071319 27.74399792 35.97229513
722 1 18.59580674 27.53797135 40.80864418
723 1 15.68419006 33.69739861 44.87079775
724 1 23.27075971 52.92033494 3.30332448
725 1 17.01513940 47.41734339 1.50229177
726 1 13.72023466 53.67320862 13.48401776
727 1 20.57876816 50.53623495 5.93595070
728 1 17.70727530 51.13513665 2.94899333