region box block 0 52.794504272175 0 54.794296100667 0 45.195295323908
units metal
dimension 3
boundary p p p
atom_style full
create_box 1 box
Created orthogonal box = (0 0 0) to (52.794504 54.794296 45.195295)
  2 by 4 by 2 MPI processor grid
create_atoms 1 random 1620 40 box
Created 1620 atoms
  using lattice units in orthogonal box = (0 0 0) to (52.794504 54.794296 45.195295)
  create_atoms CPU = 0.003 seconds
mass 1 40.078
pair_style hybrid/overlay lj/cut 25 gauss/cut 25 gauss/cut 25
pair_coeff 1 1 lj/cut 0.009507177838705264 3.7584971993521488
pair_coeff 1 1 gauss/cut 1 -0.0597999248039827 5.991246456844763 0.601172550524922
pair_coeff 1 1 gauss/cut 2 0.0726183915985775 5.919659952808235 0.9307156951487607
run 1
WARNING: No fixes with time integration, atoms won't move (src/verlet.cpp:60)
Generated 0 of 0 mixed pair_coeff terms from geometric mixing rule
Neighbor list info ...
  update every 1 steps, delay 10 steps, check yes
  max neighbors/atom: 2000, page size: 100000
  master list distance cutoff = 27
  ghost atom cutoff = 27
  binsize = 13.5, bins = 4 5 4
  3 neighbor lists, perpetual/occasional/extra = 3 0 0
  (1) pair lj/cut, perpetual
      attributes: half, newton on
      pair build: half/bin/newton
      stencil: half/bin/3d
      bin: standard
  (2) pair gauss/cut, perpetual, copy from (1)
      attributes: half, newton on
      pair build: copy
      stencil: none
      bin: none
  (3) pair gauss/cut, perpetual, copy from (1)
      attributes: half, newton on
      pair build: copy
      stencil: none
      bin: none
Per MPI rank memory allocation (min/avg/max) = 6.988 | 6.996 | 7.006 Mbytes
   Step          Temp          E_pair         E_mol          TotEng         Press     
         0   0              7.2404436e+10  0              7.2404436e+10  3.5491037e+12
         1   0              7.2404436e+10  0              7.2404436e+10  3.5491037e+12
Loop time of 0.010512 on 16 procs for 1 steps with 1620 atoms

Performance: 8.219 ns/day, 2.920 hours/ns, 95.130 timesteps/s
99.2% CPU use with 16 MPI tasks x 1 OpenMP threads

MPI task timing breakdown:
Section |  min time  |  avg time  |  max time  |%varavg| %total
---------------------------------------------------------------
Pair    | 0.0062838  | 0.0086513  | 0.010101   |   1.1 | 82.30
Bond    | 7.17e-07   | 9.6869e-07 | 1.179e-06  |   0.0 |  0.01
Neigh   | 0          | 0          | 0          |   0.0 |  0.00
Comm    | 0.00029454 | 0.0017451  | 0.0041308  |   2.5 | 16.60
Output  | 7.4986e-05 | 7.711e-05  | 7.8496e-05 |   0.0 |  0.73
Modify  | 1.331e-06  | 1.6233e-06 | 2.108e-06  |   0.0 |  0.02
Other   |            | 3.592e-05  |            |       |  0.34

Nlocal:         101.25 ave         122 max          82 min
Histogram: 1 0 3 1 4 2 2 1 0 2
Nghost:        5043.38 ave        5175 max        4933 min
Histogram: 1 2 2 2 3 1 3 1 0 1
Neighs:        51668.8 ave       67744 max       43218 min
Histogram: 3 2 2 4 2 0 2 0 0 1

Total # of neighbors = 826700
Ave neighs/atom = 510.30864
Ave special neighs/atom = 0
Neighbor list builds = 0
Dangerous builds = 0
thermo 1000
neighbor 2.0 bin
neigh_modify every 1 delay 0 check yes one 200000 page 2000000000
minimize 0.0 1.0e-8 100 1000
Generated 0 of 0 mixed pair_coeff terms from geometric mixing rule
Neighbor list info ...
  update every 1 steps, delay 0 steps, check yes
  max neighbors/atom: 200000, page size: 2000000000
  master list distance cutoff = 27
  ghost atom cutoff = 27
  binsize = 13.5, bins = 4 5 4
  3 neighbor lists, perpetual/occasional/extra = 3 0 0
  (1) pair lj/cut, perpetual
      attributes: half, newton on
      pair build: half/bin/newton
      stencil: half/bin/3d
      bin: standard
  (2) pair gauss/cut, perpetual, copy from (1)
      attributes: half, newton on
      pair build: copy
      stencil: none
      bin: none
  (3) pair gauss/cut, perpetual, copy from (1)
      attributes: half, newton on
      pair build: copy
      stencil: none
      bin: none
Per MPI rank memory allocation (min/avg/max) = 2.29e+04 | 2.29e+04 | 2.29e+04 Mbytes
   Step          Temp          E_pair         E_mol          TotEng         Press     
         1   0              7.2404436e+10  0              7.2404436e+10  3.5491037e+12
       101   0             -50.834836      0             -50.834836      645.01167    
Loop time of 1.04955 on 16 procs for 100 steps with 1620 atoms

99.8% CPU use with 16 MPI tasks x 1 OpenMP threads

Minimization stats:
  Stopping criterion = max iterations
  Energy initial, next-to-last, final = 
      72404436133.8494  -50.6115796091847   -50.834836466049
  Force two-norm initial, final = 1.5129772e+12 0.4688687
  Force max component initial, final = 5.8215581e+11 0.051695967
  Final line search alpha, max atom move = 1 0.051695967
  Iterations, force evaluations = 100 111

MPI task timing breakdown:
Section |  min time  |  avg time  |  max time  |%varavg| %total
---------------------------------------------------------------
Pair    | 0.67662    | 0.80672    | 1.0047     |   8.5 | 76.86
Bond    | 8.8689e-05 | 9.2435e-05 | 9.7351e-05 |   0.0 |  0.01
Neigh   | 0.0097993  | 0.011209   | 0.012808   |   0.8 |  1.07
Comm    | 0.027591   | 0.22712    | 0.35865    |  16.2 | 21.64
Output  | 4.2913e-05 | 4.4923e-05 | 4.702e-05  |   0.0 |  0.00
Modify  | 0          | 0          | 0          |   0.0 |  0.00
Other   |            | 0.004364   |            |       |  0.42

Nlocal:         101.25 ave         114 max          89 min
Histogram: 1 0 3 3 1 3 1 2 1 1
Nghost:        5049.94 ave        5136 max        4954 min
Histogram: 1 1 2 3 0 2 1 2 2 2
Neighs:        51666.2 ave       59784 max       46527 min
Histogram: 4 1 1 4 1 1 1 2 0 1

Total # of neighbors = 826660
Ave neighs/atom = 510.28395
Ave special neighs/atom = 0
Neighbor list builds = 7
Dangerous builds = 0
timestep 0.0005
fix 1 all nvt temp 300.0 300.0 $(100.0*dt)
fix 1 all nvt temp 300.0 300.0 0.050000000000000002776
fix removeMomentum all momentum 1 linear 1 1 1
dump 1 all custom 1000 ljg2_nvt_40/ca.traj id mol type mass x y z
dump_modify 1 sort id
run 2000000
Generated 0 of 0 mixed pair_coeff terms from geometric mixing rule
Per MPI rank memory allocation (min/avg/max) = 2.289e+04 | 2.289e+04 | 2.289e+04 Mbytes
   Step          Temp          E_pair         E_mol          TotEng         Press     
       101   0             -50.834836      0             -50.834836      645.01167    
      1000   161.64806     -46.462321      0             -12.63388       1130.0105    
      2000   290.09277     -10.294025      0              50.414319      1913.6677    
      3000   297.89661     -7.1212924      0              55.220179      2047.3594    
      4000   297.4947      -8.1688563      0              54.088506      1953.0143    
      5000   300.864       -4.1956233      0              58.766839      2100.0578    
      6000   303.47818     -3.696765       0              59.812773      2143.6616    
      7000   299.13866     -4.9535707      0              57.647827      2139.1209    
      8000   299.35593     -5.5067013      0              57.140165      2085.9785    
      9000   294.20885     -5.3562212      0              56.213504      2023.0835    
     10000   297.19025     -4.906593       0              57.287057      2004.2601    
     11000   295.87164     -5.1862676      0              56.731434      2090.8684    
     12000   291.96827     -4.4281974      0              56.672638      2030.5027    
     13000   304.9151      -5.77149        0              58.038756      2059.9995    
     14000   300.39831     -4.045697       0              58.81931       2202.8004    
     15000   304.79641     -2.4438205      0              61.341587      2193.0413    
     16000   290.90158     -2.580876       0              58.296731      2143.5582    
     17000   292.71502     -4.3233417      0              56.933767      2081.3725    
     18000   308.06667     -5.5151202      0              58.954661      2013.4095    
     19000   297.60883     -4.0011739      0              58.280072      2134.5956    
     20000   303.73411     -4.3415211      0              59.221576      2084.0914    
     21000   303.98929     -5.1991804      0              58.41732       2143.4403    
     22000   295.63272     -3.8630117      0              58.00469       2006.8171    
     23000   308.92321     -4.2249326      0              60.424098      2169.2199    
     24000   301.47087     -4.5089843      0              58.58048       2067.1794    
     25000   299.2417      -5.2507901      0              57.372172      2099.3816    
     26000   303.83177     -4.8151757      0              58.768359      2034.0078    
     27000   286.43492     -4.6058204      0              55.337038      2101.7687    
     28000   296.22724     -5.5532709      0              56.438848      2014.4365    
     29000   304.22468     -3.1879883      0              60.477771      2085.8888    
     30000   296.08686     -3.7791425      0              58.183598      2100.7742    
     31000   291.63714     -5.5420383      0              55.489501      2093.2406    
     32000   308.05423     -4.2248642      0              60.242313      2198.9566    
     33000   295.03027     -5.0443939      0              56.697233      2003.8746    
     34000   298.56016     -5.9780667      0              56.502268      2034.2082    
     35000   295.91505     -5.7689689      0              56.157818      2124.2291    
     36000   299.67758     -4.7085917      0              58.005586      2109.6358    
     37000   297.78755     -5.5775406      0              56.741108      2092.0615    
     38000   311.46236     -4.9541355      0              60.226269      2092.4385    
     39000   301.84949     -4.9045887      0              58.26411       2149.943     
     40000   290.93786     -3.9191563      0              56.966042      2088.2165    
     41000   294.35195     -4.2788474      0              57.320826      2074.1251    
     42000   311.6859      -6.2679198      0              58.959267      2022.1858    
     43000   301.61467     -3.2988219      0              59.820736      2125.4007    
     44000   307.28892     -4.0039195      0              60.303102      2088.8074    
     45000   299.12794     -5.1958273      0              57.403326      2076.3451    
     46000   290.52797     -3.4039647      0              57.395455      2110.4726    
     47000   304.95633     -5.0435387      0              58.775337      2102.6693    
     48000   302.82845     -3.8209521      0              59.552615      2074.4323    
     49000   297.82132     -4.9395127      0              57.386203      2091.2827    
     50000   308.89243     -4.9224798      0              59.720111      2025.7571    
     51000   312.67821     -4.7264055      0              60.708444      2069.691     
     52000   303.70224     -6.0270033      0              57.529425      2072.9027    
     53000   310.24414     -5.126922       0              59.798544      2033.0991    
     54000   301.601       -5.4722487      0              57.644449      2028.7262    
     55000   297.20774     -5.0197924      0              57.177517      2135.7432    
     56000   291.67962     -4.7825839      0              56.257845      2042.7709    
     57000   304.57577     -3.7375919      0              60.001641      2219.8869    
     58000   313.08598     -5.1354176      0              60.384767      2175.873     
     59000   295.01292     -3.8772071      0              57.860789      2140.6262    
     60000   296.39356     -4.1650032      0              57.861921      2087.4461    
     61000   295.56961     -5.8379105      0              56.016585      2119.9001    
     62000   292.7892      -4.8017031      0              56.47093       2124.304     
     63000   298.08506     -4.542044       0              57.838865      2100.6547    
     64000   308.73162     -5.822796       0              58.786141      2021.5937    
     65000   315.36595     -4.3425878      0              61.654731      2148.4817    
     66000   300.82112     -5.0846008      0              57.86889       2137.2494    
     67000   299.04294     -4.6419464      0              57.93942       2074.2943    
     68000   304.24294     -4.9056598      0              58.763922      2010.6971    
     69000   299.214       -4.3402267      0              58.276938      2045.3796    
     70000   295.70552     -4.7428063      0              57.14013       1993.4057    
     71000   296.85557     -4.6032958      0              57.520315      1992.8698    
     72000   299.3274      -5.3004493      0              57.340447      2051.4731    
     73000   293.78065     -4.8474721      0              56.632643      2083.7607    
     74000   303.15129     -5.5070694      0              57.93406       2024.3958    
     75000   293.24365     -4.449398       0              56.918339      2064.6269    
     76000   293.65562     -4.9271626      0              56.526787      2054.163     
     77000   293.65706     -2.3635156      0              59.090736      2178.0854    
     78000   301.17298     -3.4939671      0              59.533157      2114.3175    
     79000   312.17014     -3.4319856      0              61.896539      2204.987     
     80000   303.18251     -6.1174026      0              57.33026       2071.8827    
     81000   298.34073     -3.9207532      0              58.513661      2081.0527    
     82000   310.93484     -5.7889775      0              59.281033      2116.0015    
     83000   300.90474     -4.6773395      0              58.293651      2101.4005    
     84000   290.8858      -4.0445373      0              56.829768      2168.2261    
     85000   302.29084     -2.3854342      0              60.875627      2127.8946    
     86000   301.19012     -4.0870327      0              58.94368       2034.3167    
     87000   294.18476     -5.2811044      0              56.283581      2015.1395    
     88000   305.71136     -3.6205917      0              60.35629       2089.6272    
     89000   296.45986     -4.3714535      0              57.669347      1958.0245    
     90000   303.29648     -4.0887844      0              59.38273       2115.7187    
     91000   302.46175     -5.5299676      0              57.766861      2080.714     
     92000   309.10501     -5.0252468      0              59.66183       1954.1704    
     93000   294.83346     -4.464836       0              57.235603      2074.6383    
     94000   296.86951     -4.0034358      0              58.123093      2119.2927    
     95000   306.41712     -3.8179138      0              60.306663      2255.4123    
     96000   311.45845     -5.1813336      0              59.998253      2014.6125    
     97000   291.66372     -3.3935337      0              57.643568      2150.2075    
     98000   295.30614     -5.2890717      0              56.510287      2095.7552    
     99000   308.62424     -5.9669305      0              58.619535      2016.6713    
    100000   303.49141     -4.0789922      0              59.433314      2083.8974    
    101000   306.72958     -4.1171747      0              60.072791      1985.7718    
    102000   308.83991     -5.8069273      0              58.824673      2150.3798    
    103000   304.98518     -4.6756051      0              59.149306      2140.2308    
    104000   305.28247     -5.193256       0              58.69387       2078.1786    
    105000   292.44606     -5.7304351      0              55.470387      2111.5541    
    106000   300.71157     -5.1796281      0              57.750936      2116.1832    
    107000   289.74525     -4.2264046      0              56.409213      2108.9589    
    108000   297.75975     -6.2531364      0              56.059694      2055.6135    
    109000   294.41437     -4.6458733      0              56.966861      2089.3917    
    110000   300.05882     -5.2591009      0              57.53486       1963.4644    
    111000   309.71922     -5.424509       0              59.391106      2096.825     
    112000   296.8903      -5.638267       0              56.492612      2045.095     
    113000   297.39596     -4.7432443      0              57.493454      2040.0579    
    114000   305.12869     -5.7703104      0              58.084634      2105.0963    
    115000   291.94351     -2.9143731      0              58.18128       2100.5559    
    116000   293.6586      -4.3977495      0              57.056825      2087.0245    
    117000   298.51706     -4.0519704      0              58.419344      2100.2897    
    118000   306.29692     -5.5295172      0              58.569905      2064.2871    
    119000   300.59341     -2.2146248      0              60.691211      2202.375     
    120000   296.99035     -4.4473361      0              57.704479      2147.2642    
    121000   303.55894     -6.0148273      0              57.511613      1997.5586    
    122000   298.64395     -5.7539274      0              56.743941      2055.9254    
    123000   306.70049     -5.2734078      0              58.910471      2102.4674    
    124000   305.22008     -3.4864491      0              60.387622      2174.2958    
    125000   299.12389     -5.6977608      0              56.900545      2068.7744    
    126000   303.45183     -5.538899       0              57.965125      2053.0404    
    127000   299.5374      -5.3601569      0              57.324687      2118.9788    
    128000   315.26208     -4.2097647      0              61.765817      2165.7975    
    129000   302.48113     -3.5286583      0              59.772225      2101.5288    
    130000   303.21041     -3.657544       0              59.795959      2159.1492    
    131000   283.2675      -4.557453       0              54.722553      2091.5782    
    132000   293.4749      -3.7429509      0              57.673179      2068.9486    
    133000   304.73034     -6.0794709      0              57.69211       2081.4011    
    134000   301.33516     -4.5745387      0              58.486526      2015.7298    
    135000   305.73058     -5.1515264      0              58.829377      2067.0756    
    136000   307.02336     -5.7649565      0              58.486491      2038.7812    
    137000   296.04943     -4.7105231      0              57.244384      2149.975     
    138000   308.50503     -3.9527703      0              60.608748      2107.0419    
    139000   291.6114      -5.7240856      0              55.302066      2064.898     
    140000   305.81805     -4.0261853      0              59.973023      2180.341     
    141000   296.52942     -5.834998       0              56.220358      2042.4924    
    142000   309.25628     -4.329686       0              60.389047      2023.1214    
    143000   302.15151     -4.4339818      0              58.797922      2076.0949    
    144000   306.58856     -6.9139108      0              57.246545      2004.4805    
    145000   301.27908     -4.1039611      0              58.945368      2040.3838    
    146000   310.69009     -5.1470484      0              59.871742      2213.3067    
    147000   300.55839     -4.9821379      0              57.91637       2058.0487    
    148000   299.44276     -4.9487869      0              57.716251      2033.3264    
    149000   296.368       -3.6396818      0              58.381894      2113.301     
    150000   297.67931     -4.8714783      0              57.424519      2044.8338    
    151000   305.70203     -4.2320775      0              59.74285       2141.6205    
    152000   294.95234     -4.7425694      0              56.982748      1966.2083    
    153000   308.72995     -5.7566041      0              58.851984      2079.8562    
    154000   301.75033     -4.7646903      0              58.383257      2090.8195    
    155000   307.39881     -4.9455936      0              59.384425      2089.0425    
    156000   295.04932     -3.9637683      0              57.781845      2236.6747    
    157000   302.29057     -4.4371527      0              58.823853      2062.4569    
    158000   298.08432     -3.9819327      0              58.398821      2116.5268    
    159000   303.73533     -4.2437186      0              59.319634      2187.9494    
    160000   307.88151     -5.1475424      0              59.283491      2137.6269    
    161000   306.27702     -5.6940997      0              58.401158      2103.3593    
    162000   294.22003     -4.3351045      0              57.236961      2109.8861    
    163000   296.89846     -4.4281705      0              57.704415      1982.4879    
    164000   305.57614     -5.0528065      0              58.895777      2109.0889    
    165000   298.89978     -4.4268638      0              58.124543      2150.8706    
    166000   294.02557     -3.8962835      0              57.635087      2118.6706    
    167000   296.40749     -3.7161725      0              58.313667      2113.7306    
    168000   299.00457     -3.9071341      0              58.666203      2014.8079    
    169000   309.7111      -4.0888975      0              60.725019      2150.4812    
    170000   300.16299     -3.4780728      0              59.337689      2187.3181    
    171000   305.79014     -5.4918926      0              58.501476      2068.2048    
    172000   295.4028      -4.3457747      0              57.473813      2114.3657    
    173000   297.84358     -5.0363619      0              57.294012      2067.906     
    174000   293.24167     -4.8500829      0              56.517239      1971.2024    
    175000   303.84855     -3.1874579      0              60.399589      2185.5157    
    176000   309.54358     -3.4645827      0              61.314276      2163.0884    
    177000   299.54736     -5.6462294      0              57.040699      2081.9346    
    178000   298.46609     -5.7420875      0              56.718561      2092.5313    
    179000   300.30614     -3.8321824      0              59.013537      2094.1078    
    180000   301.77355     -4.625854       0              58.526954      2057.3438    
    181000   302.59891     -4.3754642      0              58.950068      2078.3673    
    182000   293.69933     -3.9755614      0              57.487536      2117.8981    
    183000   306.41578     -4.6053072      0              59.51899       2139.3991    
    184000   307.3115      -4.4282211      0              59.883524      2093.7163    
    185000   298.94708     -4.6196305      0              57.941675      2060.4332    
    186000   295.24555     -4.6004064      0              57.186271      2082.2871    
    187000   297.86153     -5.0234515      0              57.310679      2061.2689    
    188000   299.06411     -5.5232583      0              57.062538      2094.7387    
    189000   309.66758     -5.7496221      0              59.055186      2104.5539    
    190000   294.98076     -3.4705198      0              58.260746      2094.9426    
    191000   297.9931      -4.8484165      0              57.513248      2065.3329    
    192000   307.63678     -4.3176809      0              60.062138      2067.7339    
    193000   295.07299     -4.6035145      0              57.147052      2030.6902    
    194000   306.75569     -3.3394424      0              60.855987      2044.9116    
    195000   311.00942     -3.2065198      0              61.879098      2192.6838    
    196000   307.66582     -4.2025798      0              60.183316      2095.437     
    197000   300.77961     -4.7481479      0              58.196654      2054.1784    
    198000   295.49749     -3.7808151      0              58.058587      2190.1309    
    199000   297.19043     -4.8278807      0              57.365806      2008.9058    
    200000   289.95116     -4.4847177      0              56.193993      2121.1173    
    201000   309.6823      -5.3636674      0              59.444221      2170.9537    
    202000   306.31696     -5.3149445      0              58.788672      2021.5128    
    203000   294.10585     -5.440871       0              56.1073        2138.1402    
    204000   292.57655     -4.1988818      0              57.02925       2032.0669    
    205000   305.0159      -3.7410884      0              60.090251      2189.5766    
    206000   298.89334     -3.4746231      0              59.075437      2205.2275    
    207000   303.60288     -4.6635933      0              58.872041      2065.2084    
    208000   298.30885     -4.4863002      0              57.941442      2114.198     
    209000   305.78352     -5.2227035      0              58.769279      2033.3253    
    210000   306.07739     -5.4064144      0              58.647067      2054.9923    
    211000   297.78169     -5.6240634      0              56.693358      1964.2313    
    212000   297.21689     -3.6291385      0              58.570087      2215.0119    
    213000   317.78035     -5.0012359      0              61.501349      2166.1641    
    214000   289.64807     -4.4356407      0              56.179642      2069.7613    
    215000   298.92479     -4.6846516      0              57.871988      2044.2674    
    216000   294.55671     -5.2126209      0              56.429902      2037.112     
    217000   294.29534     -5.8609714      0              55.726855      1999.223     
    218000   304.67476     -4.3102749      0              59.449674      2064.2948    
    219000   300.20335     -6.3257062      0              56.498501      1932.4397    
    220000   296.0204      -4.1846172      0              57.764215      2072.5531    
    221000   298.09571     -4.4098686      0              57.97327       2034.7532    
    222000   303.45016     -6.131981       0              57.371695      2087.3296    
    223000   300.3593      -3.9749443      0              58.8819        2210.3002    
    224000   304.91394     -2.6127984      0              61.197206      2179.5366    
    225000   301.98311     -4.3617795      0              58.834882      2069.4354    
    226000   300.19297     -2.2316344      0              60.5904        2179.916     
    227000   303.87155     -3.750716       0              59.841145      2169.8374    
    228000   304.53439     -4.9044497      0              58.826125      2128.0882    
    229000   304.23331     -6.1127208      0              57.554847      1988.6138    
    230000   288.99774     -5.2590113      0              55.220174      2098.6249    
    231000   297.4026      -2.9586629      0              59.279426      2128.8554    
    232000   302.74863     -3.6510247      0              59.705839      2084.613     
    233000   309.15033     -6.0759119      0              58.620649      1995.353     
    234000   293.85644     -4.4843055      0              57.01167       2125.1093    
    235000   293.06856     -3.9035762      0              57.427518      2174.8593    
    236000   299.91433     -5.8092837      0              56.954439      2086.7267    
    237000   304.10837     -5.0999494      0              58.541471      2027.1826    
    238000   310.34691     -4.6927237      0              60.25425       2019.8338    
    239000   297.77076     -5.6550233      0              56.660111      2140.2718    
    240000   298.82701     -4.4787035      0              58.057474      2070.072     
    241000   292.72213     -5.1212578      0              56.137339      2100.2033    
    242000   305.78597     -4.7646042      0              59.227892      2167.9835    
    243000   308.66285     -4.5240438      0              60.070501      2155.7526    
    244000   301.21491     -4.1041984      0              58.9317        2019.7808    
    245000   313.19279     -2.3516736      0              63.190863      2208.574     
    246000   299.98946     -4.6583123      0              58.121134      2040.7093    
    247000   292.81328     -3.0611029      0              58.216569      2197.3299    
    248000   296.30425     -5.8734464      0              56.134789      2017.2407    
    249000   309.66899     -2.3232475      0              62.481857      2196.1738    
    250000   302.44245     -3.6652308      0              59.627558      2213.869     
    251000   297.0859      -5.5549347      0              56.616877      2112.3349    
    252000   313.5448      -5.0489469      0              60.567255      2103.1292    
    253000   306.55348     -4.8542865      0              59.298826      2161.2334    
    254000   293.18291     -4.1892307      0              57.165794      2079.6516    
    255000   294.48572     -3.6033477      0              58.02432       2223.6143    
    256000   295.67592     -6.0690543      0              55.807688      1966.0816    
    257000   297.83963     -7.3131313      0              55.016415      1970.5854    
    258000   303.91159     -6.7438206      0              56.856419      2042.0263    
    259000   308.37711     -4.6175544      0              59.917194      2120.3645    
    260000   306.86909     -2.9404597      0              61.278702      2236.6743    
    261000   295.17242     -5.00629        0              56.765084      2161.7585    
    262000   293.36363     -2.9780989      0              58.414746      2166.2321    
    263000   287.79093     -4.6257528      0              55.600881      2086.7681    
    264000   309.92401     -4.0344646      0              60.824008      2145.7632    
    265000   303.29682     -4.1468266      0              59.324759      2187.8351    
    266000   305.77278     -3.9636779      0              60.026057      2141.3119    
    267000   299.76604     -4.61722        0              58.115472      2044.6574    
    268000   314.84591     -5.6917144      0              60.196775      2126.5413    
    269000   301.49034     -5.6217417      0              57.471798      2025.8527    
    270000   303.06883     -4.3700702      0              59.053803      2040.9898    
    271000   300.70648     -6.16019        0              56.769309      2024.8769    
    272000   288.73175     -5.593091       0              54.830431      2053.1037    
    273000   303.68111     -4.9280802      0              58.623927      2193.117     
    274000   303.31345     -4.8947621      0              58.580303      2118.2252    
    275000   295.10047     -4.4597329      0              57.296585      2028.7688    
    276000   296.88386     -4.7973002      0              57.33223       2108.319     
    277000   298.12989     -4.5931431      0              57.797147      2061.1282    
    278000   293.1697      -4.0744595      0              57.277801      2041.4602    
    279000   289.65549     -4.6639493      0              55.952886      2049.6168    
    280000   299.08987     -4.8567197      0              57.734468      2009.914     
    281000   288.75376     -5.2099804      0              55.218146      2045.3062    
    282000   310.17133     -4.2574083      0              60.65282       2147.0428    
    283000   298.66329     -5.1890674      0              57.312848      2164.1426    
    284000   298.80334     -4.681449       0              57.849776      2132.1124    
    285000   309.63096     -5.2672476      0              59.529898      2046.8299    
    286000   299.01484     -3.7818534      0              58.793632      2248.6479    
    287000   293.95741     -5.4936913      0              56.023415      1977.2656    
    288000   305.3951      -4.9252815      0              58.985416      2146.7086    
    289000   300.12661     -2.6995791      0              60.10857       2138.514     
    290000   294.11564     -3.8974159      0              57.652804      2124.8525    
    291000   303.64309     -4.6091369      0              58.934913      2040.5914    
    292000   296.05632     -3.9825384      0              57.973812      1982.7439    
    293000   296.66221     -4.0220881      0              58.061058      2058.6292    
    294000   291.55951     -4.1852832      0              56.830009      1992.4834    
    295000   292.33061     -4.0566542      0              57.120008      2174.3522    
    296000   307.88852     -4.7565728      0              59.675927      2073.0712    
    297000   301.55858     -4.7770012      0              58.330819      2108.124     
    298000   295.12485     -3.6588056      0              58.102614      2057.6611    
    299000   302.108       -5.0882154      0              58.134582      2000.8728    
    300000   299.83669     -5.4128094      0              57.334667      2071.9355    
    301000   298.64318     -5.5166052      0              56.981102      2025.872     
    302000   306.32474     -2.8520237      0              61.253221      2130.9001    
    303000   302.72226     -5.402826       0              57.948519      2045.9403    
    304000   308.08798     -4.8453209      0              59.628921      2103.9593    
    305000   303.14786     -4.3488227      0              59.091589      2087.9538    
    306000   296.71134     -5.0284242      0              57.065002      1936.2514    
    307000   298.24555     -3.6686887      0              58.745806      2040.7737    
    308000   303.36562     -4.3485609      0              59.137423      2164.7127    
    309000   300.60491     -2.824552       0              60.083692      2161.1072    
    310000   309.07224     -5.1698835      0              59.510336      2073.6646    
    311000   298.21275     -6.3672706      0              56.040361      2142.2679    
    312000   313.60978     -4.9909534      0              60.638848      2137.1815    
    313000   287.34874     -4.9196517      0              55.214444      2135.1468    
    314000   295.66608     -4.6961993      0              57.178485      1975.8854    
    315000   290.3683      -5.07355        0              55.692456      2036.1743    
    316000   302.0442      -4.7198161      0              58.48963       2090.2516    
    317000   305.42271     -3.9265808      0              59.989894      2099.1749    
    318000   303.28244     -6.2733156      0              57.19526       2030.32      
    319000   299.2229      -5.1984876      0              57.42054       2128.8315    
    320000   295.8238      -4.8815556      0              57.026134      2089.4558    
    321000   297.49835     -3.4024226      0              58.855704      2232.5101    
    322000   296.39485     -4.3411187      0              57.686077      2136.9674    
    323000   294.40604     -6.3831856      0              55.227807      2044.1512    
    324000   293.758       -6.0226801      0              55.452695      2066.7918    
    325000   300.47591     -4.8545488      0              58.026699      2097.7199    
    326000   301.12183     -5.1664514      0              57.849968      2146.6258    
    327000   307.56207     -4.7659241      0              59.59826       2161.0947    
    328000   294.38107     -4.9058972      0              56.69987       1955.1373    
    329000   301.80743     -6.6512766      0              56.50862       2022.956     
    330000   303.09375     -5.1317626      0              58.297325      2079.6524    
    331000   303.5446      -3.4011544      0              60.122284      2089.9819    
    332000   306.40295     -2.687722       0              61.433891      2195.1369    
    333000   310.91055     -3.8300284      0              61.234899      2185.8828    
    334000   289.11786     -4.3218879      0              56.182435      2061.1359    
    335000   318.67971     -4.0638223      0              62.626974      2031.0655    
    336000   294.38234     -5.4142118      0              56.19182       2043.0105    
    337000   302.231       -4.5502837      0              58.698255      2144.577     
    338000   304.85652     -4.7151433      0              59.082844      2081.7431    
    339000   301.14615     -4.8418914      0              58.179618      2014.6036    
    340000   292.19513     -4.897385       0              56.250926      2033.5445    
    341000   296.36374     -5.3962527      0              56.624432      2017.091     
    342000   299.873       -4.9903862      0              57.76469       2152.0055    
    343000   293.98243     -5.7648702      0              55.757472      2080.8035    
    344000   293.47713     -5.0086813      0              56.407916      2073.9256    
    345000   301.0815      -4.4491059      0              58.558873      2120.2277    
    346000   308.03871     -6.0005849      0              58.463346      2101.0792    
    347000   294.80713     -4.5484851      0              57.146444      2122.3048    
    348000   308.67378     -5.2320333      0              59.3648        2134.2114    
    349000   293.2413      -4.2520523      0              57.115192      2018.512     
    350000   301.19163     -4.2962033      0              58.734825      2182.9694    
    351000   297.12061     -5.1812975      0              56.997779      2011.7653    
    352000   295.55991     -5.553019       0              56.299445      2063.1848    
    353000   297.3866      -5.3456144      0              56.889126      2026.8869    
    354000   284.91705     -5.0876316      0              54.537578      2098.1015    
    355000   303.65008     -5.291192       0              58.254321      2079.341     
    356000   295.52304     -4.1485708      0              57.696178      2040.5182    
    357000   296.46226     -5.5914128      0              56.44989       2089.8085    
    358000   301.42438     -3.6210429      0              59.458693      2148.4683    
    359000   303.90461     -3.7105853      0              59.888192      2086.1851    
    360000   305.81196     -5.0837124      0              58.914221      2073.7901    
    361000   299.37062     -5.1539375      0              57.496002      2047.2784    
    362000   302.95948     -5.8434958      0              57.557493      2046.1672    
    363000   293.62392     -4.4856832      0              56.961634      2111.2899    
    364000   308.48743     -5.6596244      0              58.89821       2056.1247    
    365000   303.02001     -4.7640379      0              58.649619      2170.785     
    366000   294.08264     -5.3143368      0              56.228977      1993.2513    
    367000   297.14854     -3.3037115      0              58.881209      2247.7141    
    368000   293.8273      -5.4845971      0              56.005282      2117.884     
    369000   307.98333     -5.4277347      0              59.024607      2102.0643    
    370000   302.62826     -4.8777408      0              58.453934      2134.5963    
    371000   295.7394      -4.906013       0              56.984015      2071.8322    
    372000   307.92437     -3.4417983      0              60.998204      2165.6135    
    373000   301.68768     -5.1004886      0              58.034348      2063.245     
    374000   298.96826     -3.722324       0              58.843414      2167.689     
    375000   300.85678     -5.3342146      0              57.626738      2034.9696    
    376000   299.60458     -4.2259093      0              58.472993      2209.7691    
    377000   301.09012     -3.6945583      0              59.315226      2090.7141    
    378000   298.25333     -5.5839622      0              56.83216       2029.1672    
    379000   300.59045     -4.6315965      0              58.27362       1939.2249    
    380000   292.29188     -4.9908681      0              56.177688      2015.8242    
    381000   300.52248     -4.4596165      0              58.431377      1988.2816    
    382000   307.09577     -4.3570216      0              59.909578      2139.5112    
    383000   291.95467     -5.0045632      0              56.093425      2051.4417    
    384000   308.6854      -4.8453202      0              59.753945      2044.0723    
    385000   298.99108     -6.1078804      0              56.462634      2042.7331    
    386000   301.3761      -5.9091289      0              57.160502      2060.7737    
    387000   291.45914     -5.7471909      0              55.247097      2063.6043    
    388000   293.79908     -4.4047239      0              57.079249      2021.341     
    389000   302.32731     -5.00714        0              58.261554      1981.8658    
    390000   303.08913     -4.3994612      0              59.02866       2146.4325    
    391000   301.68157     -4.8791237      0              58.254435      2110.1597    
    392000   295.18889     -5.6100238      0              56.164797      2051.4894    
    393000   312.40624     -4.6150618      0              60.762871      2035.8913    
    394000   297.35985     -4.4278091      0              57.801334      2007.7428    
    395000   310.5193      -3.85639        0              61.126658      2160.559     
    396000   315.79885     -5.037139       0              61.050772      2125.6994    
    397000   305.21641     -3.1318623      0              60.741439      2157.8409    
    398000   289.65077     -4.6998043      0              55.916041      2101.8087    
    399000   301.81681     -3.4845216      0              59.677339      2199.6693    
    400000   306.72174     -3.4069109      0              60.781415      2140.4354    
    401000   305.98821     -3.7443437      0              60.290475      2109.9691    
    402000   307.95097     -6.9199696      0              57.525599      2024.4472    
    403000   307.88148     -4.6284511      0              59.802576      2086.341     
    404000   300.57126     -4.3193691      0              58.581833      2051.0063    
    405000   291.30608     -4.4762921      0              56.485964      2026.6077    
    406000   296.62658     -5.2447948      0              56.830894      2111.1712    
    407000   306.91269     -6.1970465      0              58.03124       2000.3376    
    408000   294.91057     -5.1772435      0              56.539333      2006.7194    
    409000   293.54964     -4.8395058      0              56.592265      2031.463     
    410000   309.52409     -4.8380789      0              59.9367        2113.0109    
    411000   302.08436     -6.4359968      0              56.781853      1999.1273    
    412000   305.63315     -6.5294321      0              57.431081      2150.9099    
    413000   304.02626     -4.5011516      0              59.123084      2111.9354    
    414000   316.82212     -5.2101752      0              61.09188       2070.597     
    415000   307.06406     -4.3947928      0              59.865172      2166.5152    
    416000   302.22461     -3.7372321      0              59.50997       2103.6284    
    417000   293.58972     -3.5105958      0              57.929562      2190.7332    
    418000   307.31146     -4.4712386      0              59.840499      2115.6258    
    419000   292.66814     -3.5829568      0              57.664342      2128.1941    
    420000   301.57044     -5.2248235      0              57.885479      2025.2712    
    421000   303.53646     -3.9297123      0              59.592023      2131.6236    
    422000   299.15017     -4.7695027      0              57.834305      2107.5368    
    423000   293.97177     -4.8176528      0              56.702458      2141.1156    
    424000   300.30739     -6.5476552      0              56.298325      2111.3207    
    425000   298.52906     -6.4659439      0              56.007881      2100.1976    
    426000   300.10597     -3.8865134      0              58.917316      2063.7519    
    427000   304.67406     -4.9316533      0              58.828149      2150.3558    
    428000   298.69301     -5.4370185      0              57.071118      2064.2951    
    429000   312.89972     -4.8938824      0              60.587323      2033.5164    
    430000   301.00907     -6.2044896      0              56.788332      2057.6012    
    431000   295.70663     -5.1736081      0              56.709561      2140.7614    
    432000   311.89099     -3.6134082      0              61.656698      2066.7968    
    433000   296.36229     -3.9100013      0              58.110379      2140.8892    
    434000   299.42409     -5.1751557      0              57.485975      2035.7855    
    435000   293.32187     -4.1745772      0              57.209528      2047.0696    
    436000   286.81294     -2.5595557      0              57.462413      2185.0576    
    437000   311.01503     -3.2005005      0              61.88629       2139.5259    
    438000   299.32919     -2.5663034      0              60.074967      2121.2294    
    439000   291.04059     -3.4756257      0              57.431072      2145.1711    
    440000   306.78872     -6.1721128      0              58.030229      2076.9797    
    441000   302.01594     -5.0765227      0              58.12701       2059.5726    
    442000   304.53283     -4.7738306      0              58.956417      2089.8311    
    443000   286.07105     -4.2879635      0              55.578747      2108.0771    
    444000   303.31297     -3.5313167      0              59.943648      2178.5211    
    445000   305.34676     -6.0051391      0              57.895441      2059.214     
    446000   296.00177     -2.8975869      0              59.047348      2126.1161    
    447000   298.14108     -5.2795151      0              57.113118      1941.6511    
    448000   299.83434     -4.4318457      0              58.315139      2083.6093    
    449000   304.28473     -5.8151043      0              57.863223      2187.5638    
    450000   312.07035     -4.7915168      0              60.516124      2139.872     
    451000   305.23506     -4.7731549      0              59.10405       2083.6194    
    452000   290.36614     -4.2153242      0              56.550229      2103.5411    
    453000   302.06988     -3.9929576      0              59.221863      2157.8584    
    454000   301.8616      -4.7953871      0              58.375846      2048.2569    
    455000   308.74558     -5.8865083      0              58.72535       2056.1393    
    456000   306.27905     -3.804876       0              60.290806      2149.7389    
    457000   298.79589     -4.5055011      0              58.024164      2016.6399    
    458000   298.72        -3.3129007      0              59.200883      2183.132     
    459000   294.89969     -3.2877877      0              58.426512      2075.9305    
    460000   302.45201     -4.1095751      0              59.185215      2034.0152    
    461000   314.14768     -3.3896456      0              62.352722      2133.0978    
    462000   303.38606     -4.288654       0              59.201606      2077.2097    
    463000   299.07013     -4.039911       0              58.547145      2115.7572    
    464000   286.61873     -6.2373319      0              53.743992      1891.2502    
    465000   303.24906     -4.9213617      0              58.540228      2115.095     
    466000   294.91059     -3.0352104      0              58.681371      2114.2732    
    467000   304.96395     -4.3941722      0              59.426297      2144.1405    
    468000   296.8033      -4.2111754      0              57.901496      2077.5738    
    469000   291.03025     -5.7064469      0              55.198087      1995.4878    
    470000   306.42068     -5.6221206      0              58.503202      2169.2822    
    471000   297.2034      -3.3261743      0              58.870228      2114.8529    
    472000   305.13774     -4.4343265      0              59.422512      2155.3783    
    473000   297.4234      -5.3448523      0              56.897589      2081.6784    
    474000   302.29502     -4.9241864      0              58.33775       2198.6527    
    475000   298.75062     -4.4366232      0              58.083568      2046.6734    
    476000   299.99117     -3.198093       0              59.581712      2166.2112    
    477000   292.89511     -3.7498783      0              57.544918      2139.4991    
    478000   292.84109     -4.6292962      0              56.654195      2139.8035    
    479000   302.0554      -3.8453539      0              59.366437      2109.6643    
    480000   287.87452     -4.5821753      0              55.661952      1976.3272    
    481000   295.93003     -4.4619925      0              57.467928      2042.2189    
    482000   287.55852     -4.6184005      0              55.559596      2068.5429    
    483000   306.88852     -4.9786133      0              59.244615      2085.1477    
    484000   304.59421     -5.1285137      0              58.614579      2096.5477    
    485000   315.13109     -3.0367129      0              62.911456      2134.9356    
    486000   302.50628     -4.6993713      0              58.606776      2050.6409    
    487000   296.72953     -4.5962366      0              57.500997      2199.6415    
    488000   295.2409      -4.150054       0              57.635652      2106.8771    
    489000   293.52804     -5.0876835      0              56.339567      2064.9478    
    490000   314.04662     -4.8596365      0              60.861583      2122.6766    
    491000   308.17853     -5.8826535      0              58.610537      2128.3091    
    492000   298.9783      -6.761692       0              55.806147      1976.2459    
    493000   300.69649     -3.845306       0              59.082102      2124.5534    
    494000   298.2705      -5.4758259      0              56.943889      2077.9469    
    495000   288.05293     -4.3356516      0              55.945812      2128.1113    
    496000   308.28544     -4.9128464      0              59.602719      2068.5167    
    497000   297.28996     -4.2239552      0              57.990561      2109.3768    
    498000   296.83251     -6.6409442      0              55.477842      2081.2768    
    499000   301.96259     -5.3839322      0              57.808435      2028.8331    
    500000   304.65323     -7.1734384      0              56.582006      1991.9566    
    501000   303.3784      -4.1343386      0              59.354318      2091.4142    
    502000   298.6386      -3.5938958      0              58.902853      2032.4971    
    503000   292.00022     -4.7067332      0              56.400788      2115.3477    
    504000   300.33865     -4.8872443      0              57.965278      2230.9608    
    505000   299.40254     -6.0779569      0              56.578663      1996.5656    
    506000   301.42677     -4.8867898      0              58.193447      2147.0001    
    507000   304.02782     -5.8160627      0              57.808501      2009.8319    
    508000   300.51893     -5.3086768      0              57.581574      2027.7113    
    509000   303.46545     -5.1060071      0              58.400868      2099.5308    
    510000   308.51369     -5.1418592      0              59.421472      2095.364     
    511000   296.05708     -2.9848033      0              58.971706      2125.0238    
    512000   295.55846     -4.6488501      0              57.203311      2042.3278    
    513000   301.6262      -3.7356598      0              59.38631       2067.1964    
    514000   303.22665     -4.6494046      0              58.807496      2021.474     
    515000   304.84477     -6.5964098      0              57.199118      2069.8951    
    516000   298.28021     -4.0814669      0              58.34028       2151.7949    
    517000   303.50581     -5.0039925      0              58.511329      2052.8319    
    518000   301.13221     -5.1660471      0              57.852545      2059.1709    
    519000   298.21163     -5.6643227      0              56.743073      2030.1096    
    520000   295.12355     -5.0935496      0              56.667597      1968.2623    
    521000   295.09174     -4.043222       0              57.711268      2096.3422    
    522000   306.26309     -4.8702235      0              59.22212       2050.7743    
    523000   294.62979     -5.4396643      0              56.218153      2042.4318    
    524000   296.91364     -6.6773737      0              55.458389      2067.689     
    525000   293.78495     -3.8273955      0              57.65362       1992.9086    
    526000   310.97452     -5.3361494      0              59.742166      2090.0372    
    527000   302.47113     -5.1088694      0              58.189922      1960.1685    
    528000   291.85397     -4.9458912      0              56.131024      2069.0772    
    529000   308.65071     -5.4977192      0              59.094287      2076.7219    
    530000   306.31518     -3.7695267      0              60.333716      2140.9118    
    531000   301.83403     -4.9797491      0              58.185714      2123.7771    
    532000   297.96126     -4.2592705      0              58.095731      2055.4183    
    533000   294.56466     -6.0363221      0              55.607865      2073.5991    
    534000   300.57983     -4.0215658      0              58.881429      2141.5213    
    535000   300.32399     -4.6785205      0              58.170934      2079.4286    
    536000   296.68845     -3.3906518      0              58.697986      2091.5572    
    537000   290.72659     -2.7307566      0              58.11023       2097.4591    
    538000   298.31755     -5.2570803      0              57.172483      2095.5727    
    539000   290.55661     -5.010603       0              55.794811      2048.2952    
    540000   293.17816     -4.367992       0              56.986039      2131.5199    
    541000   299.91852     -4.3639877      0              58.400614      2076.1405    
    542000   287.4931      -4.4384102      0              55.725895      2125.5655    
    543000   303.90421     -2.48527        0              61.113425      2145.3854    
    544000   304.99452     -5.0515171      0              58.77535       2067.9794    
    545000   304.49036     -3.6287304      0              60.09263       2111.2714    
    546000   303.19668     -3.9735241      0              59.477104      2102.5054    
    547000   302.95322     -3.7254205      0              59.674259      2079.8577    
    548000   290.10019     -5.2833165      0              55.426582      2026.7571    
    549000   294.74746     -3.8496028      0              57.83284       2116.1927    
    550000   302.48857     -5.1175232      0              58.184917      2014.6537    
    551000   296.07367     -4.2412437      0              57.718736      2209.0519    
    552000   296.24925     -3.0684038      0              58.928322      2038.2676    
    553000   300.50371     -4.951388       0              57.935676      2049.7278    
    554000   308.47073     -6.2388979      0              58.315443      2073.9118    
    555000   297.1073      -3.7147072      0              58.461584      2161.9143    
    556000   296.46947     -6.3570763      0              55.685735      2030.7255    
    557000   295.83963     -4.2585434      0              57.65246       2084.3843    
    558000   299.39987     -3.8810276      0              58.775035      2082.5452    
    559000   306.8643      -5.5800196      0              58.638139      2077.2417    
    560000   293.23935     -3.2623295      0              58.104508      2075.0079    
    561000   284.67183     -3.9062205      0              55.667672      2193.3221    
    562000   308.78583     -3.2241757      0              61.396107      2280.014     
    563000   298.02362     -4.1716416      0              58.196409      2061.9449    
    564000   300.83977     -3.933202       0              59.024192      2122.4369    
    565000   295.49657     -5.953368       0              55.885842      2036.8073    
    566000   298.9877      -6.979722       0              55.590083      2018.7825    
    567000   292.93512     -3.4943884      0              57.808781      2126.9908    
    568000   292.69383     -4.9842263      0              56.268447      1967.6113    
    569000   307.00595     -3.7639948      0              60.483808      2105.1372    
    570000   312.33906     -5.2067365      0              60.157138      2037.5303    
    571000   307.18186     -3.8741951      0              60.41042       2206.2635    
    572000   298.96217     -5.9287334      0              56.63573       2073.3436    
    573000   296.12699     -4.5237478      0              57.447392      2119.0777    
    574000   293.22098     -3.2753347      0              58.087656      2142.0643    
    575000   300.47794     -4.0048231      0              58.876848      2159.5408    
    576000   310.07039     -6.4492305      0              58.439874      2045.8272    
    577000   303.03465     -5.7330525      0              57.683669      1998.2334    
    578000   298.07894     -5.1310383      0              57.24859       2082.0254    
    579000   299.36098     -5.1519974      0              57.495927      2147.7442    
    580000   297.20373     -5.5398569      0              56.656613      2081.8279    
    581000   286.69701     -5.3494426      0              54.648264      2077.0351    
    582000   298.22239     -6.2998517      0              56.109797      2111.0615    
    583000   293.91036     -6.8256238      0              54.681636      2004.0853    
    584000   302.62141     -5.7545002      0              57.575741      2053.2404    
    585000   293.36481     -5.7550551      0              55.638037      2097.998     
    586000   299.61746     -5.2106997      0              57.490898      2057.7873    
    587000   303.11554     -4.1871462      0              59.246501      2198.9282    
    588000   305.33406     -2.9602596      0              60.937663      2225.1956    
    589000   296.3952      -6.6503031      0              55.376965      2009.7623    
    590000   295.57539     -5.8308337      0              56.024871      1988.4362    
    591000   300.84632     -3.9103155      0              59.048448      2187.8364    
    592000   300.67925     -5.0382373      0              57.885564      2022.7497    
    593000   290.76742     -4.6158807      0              56.23365       2135.6185    
    594000   307.82352     -3.3874265      0              61.031472      2126.142     
    595000   305.58494     -4.7806422      0              59.169782      2061.5587    
    596000   297.87073     -4.8433521      0              57.492703      2028.713     
    597000   294.02655     -5.2643086      0              56.267267      2172.452     
    598000   308.93558     -4.3906812      0              60.26094       2037.4864    
    599000   300.57989     -5.2660177      0              57.63699       2033.7249    
    600000   297.10002     -5.0147727      0              57.159995      2011.0825    
    601000   277.10318     -3.9066882      0              54.083296      2083.3424    
    602000   307.88118     -3.3227043      0              61.10826       2141.4583    
    603000   295.99622     -4.2004683      0              57.743303      2083.0883    
    604000   296.79954     -2.9559811      0              59.155904      2175.1706    
    605000   301.97265     -3.6853149      0              59.509158      2157.1433    
    606000   302.52217     -6.4398346      0              56.869637      2077.4818    
    607000   300.99051     -2.3716918      0              60.617247      2092.7562    
    608000   295.05092     -6.3094719      0              55.436475      1890.6841    
    609000   295.08774     -4.2574808      0              57.496171      2068.4225    
    610000   306.27737     -5.6156109      0              58.479721      2066.3913    
    611000   301.77283     -4.2949655      0              58.857691      2115.681     
    612000   307.84961     -5.0644616      0              59.359896      2115.3576    
    613000   297.40753     -5.3125255      0              56.926595      2090.3641    
    614000   304.08192     -6.5969893      0              57.038896      1983.3147    
    615000   300.17936     -3.5952203      0              59.223968      2143.2034    
    616000   297.03535     -5.13913        0              57.022104      1944.5582    
    617000   303.84239     -3.5367481      0              60.04901       2044.8166    
    618000   296.64974     -3.7666327      0              58.313903      2066.0846    
    619000   307.80559     -3.4434244      0              60.971722      2349.3158    
    620000   298.07229     -4.4837896      0              57.894446      1995.1539    
    621000   302.24143     -5.4178815      0              57.83284       2074.0712    
    622000   302.84509     -3.7861382      0              59.590912      2044.0037    
    623000   290.30343     -3.9296827      0              56.822747      2128.8862    
    624000   296.6437      -6.1628592      0              55.916414      1974.8339    
    625000   300.96587     -4.8990885      0              58.084694      2110.2131    
    626000   292.98412     -4.3158202      0              56.997603      2224.7296    
    627000   298.80114     -3.9516422      0              58.579121      2147.572     
    628000   296.09675     -4.2131813      0              57.751629      2100.6942    
    629000   310.31774     -5.8274702      0              59.113397      2006.6812    
    630000   296.7834      -6.2183005      0              55.890206      2011.4937    
    631000   304.685       -4.408246       0              59.353846      2059.4212    
    632000   304.21866     -3.7397031      0              59.924798      2106.9978    
    633000   286.21438     -4.7442201      0              55.152485      2034.2949    
    634000   299.27611     -4.6183806      0              58.011783      2048.5205    
    635000   295.23254     -3.6715324      0              58.112423      2089.5147    
    636000   294.19333     -6.1255319      0              55.440947      2002.9924    
    637000   303.1407      -6.395803       0              57.04311       1998.0118    
    638000   291.10078     -4.4119274      0              56.507367      2122.1028    
    639000   300.25519     -6.1838538      0              56.651202      2049.4829    
    640000   307.95435     -5.1911909      0              59.255086      2127.3415    
    641000   310.39273     -4.3229415      0              60.633619      2119.3944    
    642000   296.32439     -5.2407597      0              56.77169       2053.5854    
    643000   302.15345     -4.2141406      0              59.018169      2073.2968    
    644000   302.03944     -5.1282406      0              58.080211      2065.4393    
    645000   300.15224     -5.2624107      0              57.551102      2080.679     
    646000   293.0899      -5.2861982      0              56.049362      2025.1084    
    647000   293.40407     -5.1744507      0              56.226858      2069.1594    
    648000   299.71584     -4.5197495      0              58.202435      2112.3944    
    649000   289.68973     -4.9759262      0              55.648073      2096.1232    
    650000   303.30843     -3.7730842      0              59.70093       2181.7553    
    651000   301.35009     -6.3385757      0              56.725613      2089.7057    
    652000   305.45974     -6.117442       0              57.806782      1989.1721    
    653000   300.02591     -5.138169       0              57.648905      2108.254     
    654000   290.48822     -4.5373603      0              56.253741      2156.2769    
    655000   310.06213     -4.4866981      0              60.400679      2136.9499    
    656000   303.27346     -4.0318821      0              59.434815      2210.4973    
    657000   308.91673     -5.953541       0              58.694134      2107.7741    
    658000   288.56625     -4.5831252      0              55.805762      1985.5744    
    659000   299.03855     -3.6965943      0              58.883854      2104.4215    
    660000   302.33492     -5.9513714      0              57.318916      2178.3525    
    661000   302.28194     -3.9909149      0              59.268283      2041.6109    
    662000   301.57639     -5.4828332      0              57.628713      2070.9279    
    663000   306.07572     -4.7126706      0              59.340462      2213.2491    
    664000   302.82946     -4.3187877      0              59.054992      2102.9004    
    665000   306.0183      -6.3307089      0              57.710406      2017.9971    
    666000   296.29056     -4.9705432      0              57.034826      2111.501     
    667000   304.00647     -4.1986743      0              59.421421      2058.3922    
    668000   301.79544     -4.7006131      0              58.456776      2025.7813    
    669000   298.23491     -5.3438436      0              57.068425      2069.2767    
    670000   306.42987     -5.1094465      0              59.0178        1945.9182    
    671000   291.75632     -3.1272924      0              57.929188      2207.6545    
    672000   299.3684      -5.5812912      0              57.068184      2106.615     
    673000   300.93116     -5.185521       0              57.790996      2032.8472    
    674000   301.29901     -4.8686435      0              58.184856      2066.1237    
    675000   295.06227     -5.7421044      0              56.006219      2075.6516    
    676000   296.24252     -4.0880465      0              57.90727       2200.2884    
    677000   298.16573     -4.46219        0              57.935601      2073.1682    
    678000   313.16506     -4.0988059      0              61.437928      2172.2018    
    679000   292.04855     -4.7551442      0              56.362491      2187.0198    
    680000   294.65362     -5.7471625      0              55.915642      2011.4603    
    681000   288.54999     -4.6442446      0              55.741239      2058.41      
    682000   304.53941     -4.4855109      0              59.246114      2095.7644    
    683000   297.8647      -6.0551164      0              56.279677      2062.3438    
    684000   291.66466     -5.5851022      0              55.452195      2059.1867    
    685000   298.14087     -5.3663299      0              57.026259      2075.1313    
    686000   299.80948     -4.6822024      0              58.05958       2125.0375    
    687000   301.36824     -5.164067       0              57.903921      1915.7099    
    688000   294.11528     -2.7827518      0              58.767392      2177.8668    
    689000   297.61786     -4.6987902      0              57.584346      2074.2845    
    690000   290.32801     -3.2523592      0              57.505215      2161.0111    
    691000   309.05526     -3.6264297      0              61.050237      2057.5087    
    692000   296.09346     -4.8637128      0              57.10041       2191.3662    
    693000   302.54056     -5.5353931      0              57.777927      2051.9824    
    694000   290.79026     -3.7537498      0              57.10056       2119.4991    
    695000   303.40934     -4.6875187      0              58.807614      2174.3004    
    696000   304.59065     -7.2609313      0              56.481416      1975.5814    
    697000   300.25715     -3.4502816      0              59.385186      2133.7503    
    698000   286.74055     -6.0805577      0              53.926261      2038.0647    
    699000   295.49898     -5.3174292      0              56.522286      2013.1854    
    700000   292.54273     -5.6384493      0              55.582605      2090.9485    
    701000   290.31396     -4.5856192      0              56.169016      2013.8669    
    702000   296.53268     -6.4668579      0              55.58918       2065.5387    
    703000   306.15525     -4.0847041      0              59.985072      2108.5599    
    704000   294.79048     -5.4683493      0              56.223095      2051.6728    
    705000   308.44724     -4.6189251      0              59.930499      2095.8784    
    706000   296.70493     -3.7505935      0              58.341492      2100.7371    
    707000   294.17539     -5.7401734      0              55.82255       2054.049     
    708000   296.79604     -3.6747179      0              58.436435      2108.6504    
    709000   301.92018     -5.9473879      0              57.236106      2018.8847    
    710000   301.74159     -5.8404799      0              57.305638      1997.6226    
    711000   297.28936     -4.3153495      0              57.899041      2156.8614    
    712000   306.26593     -5.5089642      0              58.583973      2016.8033    
    713000   287.31497     -4.0481296      0              56.078898      1990.103     
    714000   306.94042     -5.4020343      0              58.832056      2113.0391    
    715000   301.78481     -5.4612859      0              57.693878      2049.787     
    716000   298.80111     -3.1316288      0              59.39913       2137.3169    
    717000   296.1764      -3.1883053      0              58.793174      2057.8565    
    718000   308.59963     -5.6282291      0              58.953086      2052.73      
    719000   300.33409     -5.3126987      0              57.538869      2077.6032    
    720000   300.80847     -4.3899773      0              58.560865      2008.9123    
    721000   301.48467     -3.5820978      0              59.510256      2019.3693    
    722000   290.2013      -3.5012692      0              57.229788      2160.5468    
    723000   306.062       -7.2093485      0              56.840911      2024.8915    
    724000   307.22483     -5.0845893      0              59.20902       2096.5346    
    725000   311.01989     -4.2785113      0              60.809298      2114.5327    
    726000   305.44518     -3.8735187      0              60.047659      2114.9521    
    727000   302.90139     -4.6003731      0              58.78846       2164.1515    
    728000   302.43908     -4.737983       0              58.5541        2120.0167    
    729000   293.26212     -3.0931066      0              58.278494      2037.6833    
    730000   305.21688     -2.9673946      0              60.906006      2082.374     
    731000   299.90096     -5.3162576      0              57.444668      2073.215     
    732000   313.1655      -3.2402363      0              62.296588      2099.4896    
    733000   299.53816     -4.4327687      0              58.252234      2123.7424    
    734000   306.77749     -4.5915615      0              59.60843       2017.8479    
    735000   300.62965     -4.3653706      0              58.54805       2094.1349    
    736000   296.78146     -5.2886297      0              56.819472      2041.0914    
    737000   302.31864     -6.2250862      0              57.041794      2022.1436    
    738000   284.38582     -4.74458        0              54.769459      1976.7972    
    739000   296.12528     -4.8410105      0              57.12977       2120.6108    
    740000   303.09284     -3.6676408      0              59.761258      2163.343     
    741000   295.71115     -5.4891909      0              56.394924      2055.6014    
    742000   303.41197     -4.6458084      0              58.849874      2079.203     
    743000   295.98199     -4.3823184      0              57.558476      2240.0338    
    744000   310.81854     -5.8417162      0              59.203955      2046.8867    
    745000   296.79576     -2.5925582      0              59.518536      2032.2301    
    746000   298.82145     -5.1678077      0              57.367208      2078.7355    
    747000   301.93845     -6.5530519      0              56.634264      1994.4103    
    748000   297.57665     -5.6309959      0              56.643517      2028.0972    
    749000   293.89292     -4.7957674      0              56.707844      2050.9837    
    750000   295.6237      -5.2242785      0              56.641537      2022.9649    
    751000   305.2781      -4.7063735      0              59.179839      2132.8951    
    752000   308.35507     -4.6693252      0              59.86081       2162.7272    
    753000   305.21213     -5.3731477      0              58.499259      2068.5174    
    754000   289.54388     -5.5653394      0              55.028139      2058.2052    
    755000   301.05961     -3.2118103      0              59.79159       2106.1428    
    756000   298.26839     -3.6841894      0              58.735086      2117.3816    
    757000   305.70885     -4.602786       0              59.37357       2134.1313    
    758000   295.08487     -4.1673231      0              57.58573       2074.8244    
    759000   302.49157     -6.6868247      0              56.616245      1996.8175    
    760000   292.38087     -5.2787965      0              55.908384      1962.4137    
    761000   306.02804     -4.4899958      0              59.553157      2184.1763    
    762000   298.28709     -6.2352152      0              56.187972      2076.9441    
    763000   308.55369     -4.220617       0              60.351086      2150.4829    
    764000   287.32539     -4.0101356      0              56.119073      2090.0926    
    765000   301.45431     -6.3418514      0              56.744148      2112.1623    
    766000   302.3208      -3.8414204      0              59.425912      2141.5513    
    767000   300.23848     -5.6392105      0              57.19235       2054.4965    
    768000   310.8216      -4.276985       0              60.769327      2073.9865    
    769000   292.23729     -4.2309781      0              56.926154      2128.7244    
    770000   298.56176     -4.9650042      0              57.515665      2047.1761    
    771000   304.64296     -4.2183691      0              59.534926      2122.0194    
    772000   299.19779     -4.0857787      0              58.527994      2104.1062    
    773000   308.91774     -4.2446646      0              60.403222      2135.7226    
    774000   289.82834     -4.7287602      0              55.924247      2093.8646    
    775000   299.6845      -4.6278431      0              58.087784      1988.5201    
    776000   305.48203     -4.9650488      0              58.96384       2059.1615    
    777000   296.43155     -3.5232659      0              58.511609      2177.489     
    778000   303.83847     -5.1931147      0              58.391823      2096.0039    
    779000   292.22973     -6.1754797      0              54.980071      1972.3159    
    780000   294.11778     -4.2998822      0              57.250786      2138.4699    
    781000   307.68244     -3.6430437      0              60.74633       2057.3868    
    782000   304.11176     -3.2313857      0              60.410744      2137.1272    
    783000   304.27322     -3.9150547      0              59.760863      2176.044     
    784000   295.20109     -3.9128296      0              57.864544      2137.94      
    785000   297.41433     -3.4130464      0              58.827498      2159.2391    
    786000   290.60096     -4.5754528      0              56.239243      2083.3543    
    787000   295.76037     -4.9514944      0              56.942922      2040.9653    
    788000   301.06976     -4.2306618      0              58.774862      2050.386     
    789000   295.75493     -3.6398619      0              58.253415      2161.2577    
    790000   296.53915     -4.4895851      0              57.567807      2073.7543    
    791000   299.54924     -3.9147842      0              58.772536      2173.674     
    792000   282.87376     -5.3226996      0              53.874907      1978.5068    
    793000   298.36438     -4.0293701      0              58.409992      2136.6055    
    794000   296.57207     -4.0599476      0              58.004334      2103.0745    
    795000   303.95357     -5.7759268      0              57.833097      2150.404     
    796000   304.125       -5.1170325      0              58.527867      2081.1406    
    797000   298.34107     -4.1628166      0              58.271668      1982.687     
    798000   312.79004     -2.9593192      0              62.498932      2140.9334    
    799000   294.59585     -4.4093611      0              57.241353      2130.3393    
    800000   292.79361     -5.5400955      0              55.733459      2108.233     
    801000   302.31554     -5.7957372      0              57.470494      2025.9936    
    802000   285.48662     -6.2445073      0              53.499899      2101.9367    
    803000   298.36641     -4.9487136      0              57.491074      2089.3132    
    804000   288.09182     -3.503649       0              56.785953      1985.2552    
    805000   300.2834      -3.5294548      0              59.311505      2085.2604    
    806000   304.69319     -2.5874815      0              61.176326      2139.7845    
    807000   298.52455     -5.2998429      0              57.173039      2057.6132    
    808000   299.39687     -3.6584825      0              58.996951      2068.2663    
    809000   304.28497     -4.9592592      0              58.719119      2117.3365    
    810000   302.32791     -4.4996339      0              58.769185      2187.4168    
    811000   311.58904     -5.4491816      0              59.757734      1995.1053    
    812000   296.50014     -3.8479624      0              58.201267      2135.0521    
    813000   298.66454     -3.6392161      0              58.862961      2183.1132    
    814000   296.65921     -4.3689871      0              57.713531      2041.68      
    815000   297.26705     -3.6499512      0              58.559771      2126.3718    
    816000   290.64964     -3.5421244      0              57.282758      2136.5645    
    817000   304.12451     -3.8444774      0              59.800321      2245.4974    
    818000   293.38806     -5.0638826      0              56.334075      1930.4272    
    819000   297.09831     -4.9473209      0              57.227089      2071.1469    
    820000   293.01864     -3.4345495      0              57.886098      2070.7795    
    821000   303.71579     -5.5752928      0              57.983971      2021.8388    
    822000   306.30315     -4.9851643      0              59.115563      2049.0193    
    823000   297.12555     -4.3500467      0              57.830063      2093.3831    
    824000   306.9655      -5.827914       0              58.411423      2114.7158    
    825000   297.37338     -5.8547933      0              56.377182      2010.1109    
    826000   299.55554     -4.9403013      0              57.748338      2101.4036    
    827000   298.32805     -4.4010061      0              58.030753      2104.9284    
    828000   312.96859     -5.5590343      0              59.936583      2098.2366    
    829000   296.39455     -2.3127971      0              59.714334      2156.2877    
    830000   306.80142     -4.5327216      0              59.672279      2070.1877    
    831000   299.33956     -4.033378       0              58.610062      2181.5377    
    832000   295.97522     -5.8191283      0              56.120251      2078.511     
    833000   302.42208     -4.6431572      0              58.645369      2029.9324    
    834000   289.38455     -4.5746125      0              55.985522      2033.9946    
    835000   294.52498     -4.5862641      0              57.04962       1970.6128    
    836000   312.93624     -6.4555683      0              59.033279      2016.0388    
    837000   297.5267      -4.1845796      0              58.079479      2085.478     
    838000   306.62526     -5.9306864      0              58.237448      1992.2146    
    839000   296.92821     -4.5913381      0              57.547475      2054.2529    
    840000   303.18101     -4.0916382      0              59.355711      2157.9786    
    841000   312.37902     -3.8005021      0              61.571734      2126.2543    
    842000   298.23597     -4.9418017      0              57.470689      2047.8528    
    843000   290.49377     -4.640848       0              56.151416      2026.2502    
    844000   304.74889     -4.8367813      0              58.938683      2126.9418    
    845000   305.41298     -5.328612       0              58.585826      2132.1405    
    846000   292.60029     -4.3836773      0              56.849422      2118.162     
[...]
   1814000   306.40877     -4.6147001      0              59.508131      2031.3275    
   1815000   296.87834     -3.819414       0              58.308962      2160.7333    
   1816000   293.98206     -5.8792285      0              55.643036      2047.0423    
   1817000   304.80838     -4.6297346      0              59.158178      2043.2962    
   1818000   303.7184      -4.8669924      0              58.692817      2185.3179    
   1819000   285.32737     -4.2784466      0              55.432632      2035.5976    
   1820000   298.25468     -3.7323275      0              58.684078      2071.7831    
   1821000   298.17248     -3.9174879      0              58.481715      2161.033     
   1822000   298.84452     -5.0263747      0              57.513468      2090.6804    
   1823000   297.07047     -6.4834889      0              55.685095      2027.7134    
   1824000   295.21077     -4.4041991      0              57.375202      2107.1449    
   1825000   295.49699     -5.3240505      0              56.515246      1956.1342    
   1826000   304.14007     -5.81031        0              57.837745      2062.7522    
   1827000   296.33854     -3.2884516      0              58.726959      2055.9786    
   1828000   319.09058     -4.8028266      0              61.973953      2201.1657    
   1829000   299.64486     -3.8245512      0              58.882781      2169.0323    
   1830000   302.35006     -4.5468241      0              58.726631      2142.7251    
   1831000   292.21992     -4.165997       0              56.987502      2138.2057    
   1832000   301.29844     -4.9153809      0              58.137998      2014.5674    
   1833000   300.26567     -5.7563121      0              57.080938      2055.6535    
   1834000   294.15421     -5.1975834      0              56.360708      2183.8446    
   1835000   308.42598     -5.3819499      0              59.163026      2098.1092    
   1836000   293.05281     -3.6004663      0              57.727332      2228.7145    
   1837000   292.08372     -4.8347427      0              56.290253      2030.2975    
   1838000   305.91535     -3.5906626      0              60.428908      2046.6867    
   1839000   302.16992     -4.1715168      0              59.064239      2083.3457    
   1840000   292.49162     -5.7524762      0              55.457882      2058.2048    
   1841000   319.47445     -5.9328589      0              60.924255      2029.6953    
   1842000   286.26611     -4.6377906      0              55.269741      2098.4588    
   1843000   289.02646     -5.977973       0              54.507223      2062.3751    
   1844000   297.21833     -3.6313664      0              58.56816       2079.7027    
   1845000   295.66925     -2.8542631      0              59.021084      2175.7702    
   1846000   298.97889     -4.69437        0              57.873592      2140.8844    
   1847000   307.78456     -3.9511038      0              60.45964       2028.5187    
   1848000   290.38222     -3.9028109      0              56.866107      2127.1695    
   1849000   290.51581     -5.865969       0              54.930906      2102.4285    
   1850000   304.6321      -5.1534879      0              58.597534      2099.8363    
   1851000   299.05903     -6.6511901      0              55.933542      2053.9535    
   1852000   301.43254     -5.9911412      0              57.090301      2068.143     
   1853000   304.44152     -4.862437       0              58.848701      2078.1593    
   1854000   296.17223     -3.858341       0              58.122266      2106.7062    
   1855000   301.24048     -4.5908312      0              58.450418      2093.7571    
   1856000   298.3448      -3.5289786      0              58.906287      2129.1582    
   1857000   309.67647     -3.1943793      0              61.612288      2105.5938    
   1858000   296.48976     -3.4684502      0              58.578607      2208.576     
   1859000   309.64958     -5.0590296      0              59.742012      2137.5491    
   1860000   302.17054     -5.4642173      0              57.771669      2102.7608    
   1861000   296.39576     -4.7325094      0              57.294877      2098.7013    
   1862000   306.68142     -3.280746       0              60.899142      2090.5042    
   1863000   293.43855     -5.2868461      0              56.121678      2085.2944    
   1864000   286.82329     -4.6451141      0              55.37902       2203.588     
   1865000   297.70533     -4.3032223      0              57.998221      2020.8684    
   1866000   301.40595     -3.5805274      0              59.495352      2081.3393    
   1867000   301.84924     -3.5549242      0              59.613723      2147.4932    
   1868000   306.71689     -2.2674475      0              61.919863      2214.3366    
   1869000   294.43655     -4.6362745      0              56.981103      2092.064     
   1870000   296.67351     -5.1646906      0              56.92082       2066.2847    
   1871000   288.67322     -4.8268776      0              55.584396      2160.433     
   1872000   304.57464     -4.4830065      0              59.25599       2104.6351    
   1873000   298.94731     -5.030687       0              57.530667      1973.4568    
   1874000   304.39901     -5.3795667      0              58.322675      2070.9254    
   1875000   300.57843     -3.8758785      0              59.026822      2153.1553    
   1876000   303.0537      -2.5209548      0              60.899752      2124.7454    
   1877000   301.3282      -4.4759782      0              58.58363       2095.6947    
   1878000   305.10081     -5.2303176      0              58.618792      2119.2519    
   1879000   299.94466     -3.6938837      0              59.076187      2083.4005    
   1880000   296.26218     -2.9338854      0              59.065545      2208.3794    
   1881000   295.27309     -3.4375039      0              58.354938      2037.3295    
   1882000   302.36931     -4.0852215      0              59.192262      2178.1138    
   1883000   305.80626     -3.9507099      0              60.046032      2169.6443    
   1884000   294.7745      -2.861311       0              58.82679       2045.587     
   1885000   286.37372     -4.1221355      0              55.807916      2136.1779    
   1886000   294.40202     -4.3012436      0              57.308907      2069.8044    
   1887000   302.90091     -4.8194398      0              58.569292      2023.6398    
   1888000   297.68241     -4.6210566      0              57.675588      2006.2352    
   1889000   298.82984     -3.7942113      0              58.74256       2149.0363    
   1890000   302.39813     -3.2566175      0              60.026897      2213.8026    
   1891000   305.38795     -4.7585615      0              59.150639      2011.743     
   1892000   297.31215     -6.1011176      0              56.118044      2062.7723    
   1893000   302.54591     -5.2038541      0              58.110586      2120.1568    
   1894000   297.40733     -4.0186115      0              58.220468      2206.9246    
   1895000   302.60091     -4.3999867      0              58.925965      2109.8069    
   1896000   300.99444     -5.1550552      0              57.834706      2113.2378    
   1897000   291.09965     -4.0272235      0              56.891834      2176.3772    
   1898000   295.45074     -5.31746        0              56.512159      1979.7223    
   1899000   299.64277     -3.7201595      0              58.986734      2047.9712    
   1900000   295.48212     -4.2619638      0              57.574221      2155.3818    
   1901000   302.98472     -4.9877624      0              58.418508      2095.2442    
   1902000   305.86904     -5.2632386      0              58.746641      2111.2414    
   1903000   295.37648     -4.3563063      0              57.457772      2006.754     
   1904000   305.20401     -4.0793943      0              59.791312      2152.7976    
   1905000   297.26545     -5.0191683      0              57.190219      2012.1007    
   1906000   302.89702     -4.9195619      0              58.468355      2101.6714    
   1907000   303.12008     -4.5670785      0              58.867521      2134.0697    
   1908000   306.59121     -3.9550747      0              60.205935      2114.269     
   1909000   293.49424     -4.8538321      0              56.566345      2059.543     
   1910000   301.95584     -4.418747       0              58.772209      2096.5655    
   1911000   307.30494     -3.5873875      0              60.722986      2108.5223    
   1912000   302.47387     -5.2773006      0              58.022064      2096.5547    
   1913000   298.15977     -6.2758529      0              56.120691      2057.9928    
   1914000   311.11414     -5.0977501      0              60.009783      2101.9565    
   1915000   303.31465     -4.9380437      0              58.537273      2184.2346    
   1916000   297.23914     -4.7771787      0              57.426702      2122.2598    
   1917000   288.27618     -4.8673058      0              55.460877      2140.4144    
   1918000   303.92037     -4.355746       0              59.246331      2179.7219    
   1919000   300.77203     -4.7475142      0              58.195704      2021.3996    
   1920000   301.05721     -4.2085352      0              58.794362      2060.3182    
   1921000   300.30469     -2.9764082      0              59.869007      2220.7837    
   1922000   305.27905     -5.042633       0              58.843777      2192.0367    
   1923000   301.95927     -4.4996427      0              58.69203       2090.6868    
   1924000   308.18284     -4.7940906      0              59.700002      2170.7608    
   1925000   301.42703     -5.4901166      0              57.590173      2027.4516    
   1926000   290.53043     -3.1237768      0              57.676159      2224.3263    
   1927000   301.26245     -3.6378603      0              59.407988      2154.0396    
   1928000   312.05261     -2.9964797      0              62.307449      2261.7162    
   1929000   297.61706     -6.4510777      0              55.831891      2044.2198    
   1930000   292.35337     -5.2745686      0              55.906856      2086.4724    
   1931000   292.06437     -4.7975936      0              56.323352      1996.4501    
   1932000   295.96915     -4.3752873      0              57.562821      2117.5006    
   1933000   300.48634     -3.9468417      0              58.936588      2051.6922    
   1934000   306.12073     -4.9527873      0              59.109764      2191.8861    
   1935000   298.88355     -4.457714       0              58.090297      2158.0518    
   1936000   294.77993     -7.4137282      0              54.275509      1949.9664    
   1937000   293.67552     -5.4358774      0              56.022237      2145.4663    
   1938000   299.58658     -5.4650024      0              57.230134      2140.4245    
   1939000   299.40527     -4.4064473      0              58.250744      2183.2395    
   1940000   300.67311     -5.0485691      0              57.873947      2111.8417    
   1941000   300.90654     -4.9289626      0              58.042404      2112.5105    
   1942000   296.15179     -5.812933       0              56.163395      2057.8512    
   1943000   300.31868     -6.0608592      0              56.787485      2010.7758    
   1944000   295.66853     -3.4824507      0              58.392745      2021.1227    
   1945000   310.59268     -3.8605484      0              61.137857      2091.8317    
   1946000   298.7363      -5.1394869      0              57.377707      2031.3952    
   1947000   291.12365     -4.7374345      0              56.186644      2087.5209    
   1948000   303.19043     -5.8883773      0              57.560943      2024.3528    
   1949000   310.09211     -3.7107034      0              61.182947      2125.8938    
   1950000   297.96216     -4.9463987      0              57.40879       2119.3889    
   1951000   304.12591     -4.875977       0              58.769114      1955.9645    
   1952000   293.39262     -3.2159134      0              58.182998      2073.8811    
   1953000   305.49634     -6.0348301      0              57.897054      2080.5452    
   1954000   288.55136     -5.5441485      0              54.841621      1998.1939    
   1955000   298.33035     -4.2706403      0              58.161601      2095.3108    
   1956000   305.18654     -4.5773018      0              59.289749      2080.5172    
   1957000   303.41653     -4.6791856      0              58.817451      2112.7786    
   1958000   301.30852     -4.495691       0              58.559799      2092.6827    
   1959000   287.39234     -4.653536       0              55.489684      1994.67      
   1960000   308.75846     -2.3380153      0              62.27654       2139.8344    
   1961000   304.78514     -4.2144486      0              59.5686        2172.9807    
   1962000   299.28496     -3.7039678      0              58.928046      2075.8753    
   1963000   291.18867     -5.2241838      0              55.713502      2108.0336    
   1964000   294.42968     -4.5807937      0              57.035146      1924.7922    
   1965000   300.36754     -3.2049122      0              59.653657      2140.852     
   1966000   305.1417      -4.9278869      0              58.92978       2082.8421    
   1967000   305.81041     -4.5732427      0              59.424366      2039.9433    
   1968000   295.91318     -3.8318678      0              58.094528      2073.7335    
   1969000   302.00692     -5.7532435      0              57.448402      1969.9327    
   1970000   302.82187     -4.9401456      0              58.432046      2057.7787    
   1971000   296.1139      -3.8277801      0              58.14062       2162.821     
   1972000   301.54513     -4.6319904      0              58.473014      2136.9081    
   1973000   287.79785     -3.5197634      0              56.708318      2118.6704    
   1974000   305.42916     -2.2841151      0              61.633709      2134.3438    
   1975000   298.56279     -3.8807855      0              58.600099      2174.7066    
   1976000   296.42176     -4.9950541      0              57.037773      2070.3718    
   1977000   306.71957     -5.2298173      0              58.958054      2120.5024    
   1978000   296.61532     -5.4091346      0              56.664199      1978.6265    
   1979000   309.64188     -5.2699366      0              59.529493      2015.4646    
   1980000   290.84127     -4.4267893      0              56.438196      2103.8487    
   1981000   297.42828     -5.7768269      0              56.466636      1996.752     
   1982000   298.35094     -4.8774921      0              57.559058      2079.2582    
   1983000   298.55882     -5.618559       0              56.861495      2159.664     
   1984000   302.38439     -5.5647452      0              57.715893      2080.1107    
   1985000   299.57087     -5.1465942      0              57.545252      1977.5616    
   1986000   291.05268     -3.6056112      0              57.303616      2243.1866    
   1987000   290.03602     -4.3191992      0              56.37727       2069.802     
   1988000   301.30593     -5.4886552      0              57.566293      2016.6165    
   1989000   296.77019     -3.7456372      0              58.360105      2147.8489    
   1990000   303.54313     -4.6200753      0              58.903056      2122.815     
   1991000   309.44866     -3.8710675      0              60.887927      2124.925     
   1992000   296.89475     -3.7760087      0              58.355801      2159.4409    
   1993000   300.82314     -4.4443334      0              58.509579      2064.1782    
   1994000   294.60798     -4.6067347      0              57.046518      2043.7681    
   1995000   305.13139     -5.9888867      0              57.866623      1994.6528    
   1996000   293.69383     -3.6869819      0              57.774964      2073.7083    
   1997000   299.50146     -5.4643951      0              57.212927      2145.8741    
   1998000   300.4469      -5.6697854      0              57.20539       2029.9121    
   1999000   303.02364     -4.3662363      0              59.04818       2027.9627    
   2000000   301.08765     -5.5787811      0              57.430486      2085.0536    
   2000101   295.61796     -5.1112675      0              56.753346      2139.281     
Loop time of 13951.8 on 16 procs for 2000000 steps with 1620 atoms

Performance: 6.193 ns/day, 3.876 hours/ns, 143.350 timesteps/s
99.9% CPU use with 16 MPI tasks x 1 OpenMP threads

MPI task timing breakdown:
Section |  min time  |  avg time  |  max time  |%varavg| %total
---------------------------------------------------------------
Pair    | 10941      | 11912      | 12871      | 572.7 | 85.38
Bond    | 1.5565     | 1.6114     | 1.7068     |   3.4 |  0.01
Neigh   | 16.129     | 16.744     | 17.332     |  11.5 |  0.12
Comm    | 1007.2     | 1967.2     | 2939       |1410.9 | 14.10
Output  | 1.091      | 1.0915     | 1.0929     |   0.0 |  0.01
Modify  | 28.117     | 28.593     | 29.165     |   6.0 |  0.20
Other   |            | 24.48      |            |       |  0.18

Nlocal:         101.25 ave         109 max          95 min
Histogram: 2 1 2 1 1 6 0 1 0 2
Nghost:        5064.25 ave        5137 max        4998 min
Histogram: 1 0 4 2 3 1 2 1 1 1
Neighs:        51666.2 ave       59490 max       45955 min
Histogram: 3 3 0 2 2 1 1 1 2 1

Total # of neighbors = 826660
Ave neighs/atom = 510.28395
Ave special neighs/atom = 0
Neighbor list builds = 10399
Dangerous builds = 0
comm_modify cutoff 27.58
compute myRDF all rdf 1129 cutoff 22.58
fix 2 all ave/time 1 1 1 c_myRDF[*] file ljg2_nvt_40rdf.rdf mode vector
run 0 pre yes post no
Generated 0 of 0 mixed pair_coeff terms from geometric mixing rule
WARNING: Compute rdf cutoff less than neighbor cutoff - forcing a needless neighbor list build (src/compute_rdf.cpp:179)
Neighbor list info ...
  update every 1 steps, delay 0 steps, check yes
  max neighbors/atom: 200000, page size: 2000000000
  master list distance cutoff = 27
  ghost atom cutoff = 27.58
  binsize = 13.5, bins = 4 5 4
  4 neighbor lists, perpetual/occasional/extra = 3 1 0
  (1) pair lj/cut, perpetual
      attributes: half, newton on
      pair build: half/bin/newton
      stencil: half/bin/3d
      bin: standard
  (2) pair gauss/cut, perpetual, copy from (1)
      attributes: half, newton on
      pair build: copy
      stencil: none
      bin: none
  (3) pair gauss/cut, perpetual, copy from (1)
      attributes: half, newton on
      pair build: copy
      stencil: none
      bin: none
  (4) compute rdf, occasional
      attributes: half, newton on, cut 24.58
      pair build: half/bin/newton
      stencil: half/bin/3d
      bin: standard
Per MPI rank memory allocation (min/avg/max) = 3.053e+04 | 3.053e+04 | 3.053e+04 Mbytes
   Step          Temp          E_pair         E_mol          TotEng         Press     
   2000101   295.61796     -5.1112675      0              56.753346      2139.281     
Loop time of 4.38288e-06 on 16 procs for 0 steps with 1620 atoms

uncompute myRDF
unfix 2
write_data ljg2_nvt_40/ca_md.data nocoeff nofix
System init for write_data ...
Generated 0 of 0 mixed pair_coeff terms from geometric mixing rule
Neighbor list info ...
  update every 1 steps, delay 0 steps, check yes
  max neighbors/atom: 200000, page size: 2000000000
  master list distance cutoff = 27
  ghost atom cutoff = 27.58
  binsize = 13.5, bins = 4 5 4
  3 neighbor lists, perpetual/occasional/extra = 3 0 0
  (1) pair lj/cut, perpetual
      attributes: half, newton on
      pair build: half/bin/newton
      stencil: half/bin/3d
      bin: standard
  (2) pair gauss/cut, perpetual, copy from (1)
      attributes: half, newton on
      pair build: copy
      stencil: none
      bin: none
  (3) pair gauss/cut, perpetual, copy from (1)
      attributes: half, newton on
      pair build: copy
      stencil: none
      bin: none
Total wall time: 3:52:33
