region box block 0 52.794504272175 0 54.794296100667 0 45.195295323908
units metal
dimension 3
boundary p p p
atom_style full
create_box 1 box
Created orthogonal box = (0 0 0) to (52.794504 54.794296 45.195295)
  2 by 4 by 2 MPI processor grid
create_atoms 1 random 1620 45 box
Created 1620 atoms
  using lattice units in orthogonal box = (0 0 0) to (52.794504 54.794296 45.195295)
  create_atoms CPU = 0.002 seconds
mass 1 40.078
pair_style hybrid/overlay lj/cut 25 gauss/cut 25 gauss/cut 25
pair_coeff 1 1 lj/cut 0.009507177838705264 3.7584971993521488
pair_coeff 1 1 gauss/cut 1 -0.0597999248039827 5.991246456844763 0.601172550524922
pair_coeff 1 1 gauss/cut 2 0.0726183915985775 5.919659952808235 0.9307156951487607
run 1
WARNING: No fixes with time integration, atoms won't move (src/verlet.cpp:60)
Generated 0 of 0 mixed pair_coeff terms from geometric mixing rule
Neighbor list info ...
  update every 1 steps, delay 10 steps, check yes
  max neighbors/atom: 2000, page size: 100000
  master list distance cutoff = 27
  ghost atom cutoff = 27
  binsize = 13.5, bins = 4 5 4
  3 neighbor lists, perpetual/occasional/extra = 3 0 0
  (1) pair lj/cut, perpetual
      attributes: half, newton on
      pair build: half/bin/newton
      stencil: half/bin/3d
      bin: standard
  (2) pair gauss/cut, perpetual, copy from (1)
      attributes: half, newton on
      pair build: copy
      stencil: none
      bin: none
  (3) pair gauss/cut, perpetual, copy from (1)
      attributes: half, newton on
      pair build: copy
      stencil: none
      bin: none
Per MPI rank memory allocation (min/avg/max) = 6.992 | 6.997 | 7.003 Mbytes
   Step          Temp          E_pair         E_mol          TotEng         Press     
         0   0              4.0610219e+11  0              4.0610219e+11  1.9906207e+13
         1   0              4.0610219e+11  0              4.0610219e+11  1.9906207e+13
Loop time of 0.00876148 on 16 procs for 1 steps with 1620 atoms

Performance: 9.861 ns/day, 2.434 hours/ns, 114.136 timesteps/s
99.5% CPU use with 16 MPI tasks x 1 OpenMP threads

MPI task timing breakdown:
Section |  min time  |  avg time  |  max time  |%varavg| %total
---------------------------------------------------------------
Pair    | 0.0046982  | 0.0063483  | 0.0084319  |   1.2 | 72.46
Bond    | 5.43e-07   | 6.1975e-07 | 7.61e-07   |   0.0 |  0.01
Neigh   | 0          | 0          | 0          |   0.0 |  0.00
Comm    | 0.00022278 | 0.0023137  | 0.0039793  |   1.9 | 26.41
Output  | 5.0162e-05 | 5.2342e-05 | 5.4503e-05 |   0.0 |  0.60
Modify  | 1.035e-06  | 1.1647e-06 | 1.317e-06  |   0.0 |  0.01
Other   |            | 4.534e-05  |            |       |  0.52

Nlocal:         101.25 ave         129 max          80 min
Histogram: 2 1 1 3 2 4 2 0 0 1
Nghost:        5081.94 ave        5153 max        5018 min
Histogram: 3 0 1 4 1 2 1 1 1 2
Neighs:        51649.4 ave       69701 max       37573 min
Histogram: 1 0 5 2 1 1 4 1 0 1

Total # of neighbors = 826390
Ave neighs/atom = 510.11728
Ave special neighs/atom = 0
Neighbor list builds = 0
Dangerous builds = 0
thermo 1000
neighbor 2.0 bin
neigh_modify every 1 delay 0 check yes one 200000 page 2000000000
minimize 0.0 1.0e-8 100 1000
Generated 0 of 0 mixed pair_coeff terms from geometric mixing rule
Neighbor list info ...
  update every 1 steps, delay 0 steps, check yes
  max neighbors/atom: 200000, page size: 2000000000
  master list distance cutoff = 27
  ghost atom cutoff = 27
  binsize = 13.5, bins = 4 5 4
  3 neighbor lists, perpetual/occasional/extra = 3 0 0
  (1) pair lj/cut, perpetual
      attributes: half, newton on
      pair build: half/bin/newton
      stencil: half/bin/3d
      bin: standard
  (2) pair gauss/cut, perpetual, copy from (1)
      attributes: half, newton on
      pair build: copy
      stencil: none
      bin: none
  (3) pair gauss/cut, perpetual, copy from (1)
      attributes: half, newton on
      pair build: copy
      stencil: none
      bin: none
Per MPI rank memory allocation (min/avg/max) = 2.29e+04 | 2.29e+04 | 2.29e+04 Mbytes
   Step          Temp          E_pair         E_mol          TotEng         Press     
         1   0              4.0610219e+11  0              4.0610219e+11  1.9906207e+13
       101   0             -49.473616      0             -49.473616      753.79739    
Loop time of 0.904936 on 16 procs for 100 steps with 1620 atoms

99.6% CPU use with 16 MPI tasks x 1 OpenMP threads

Minimization stats:
  Stopping criterion = max iterations
  Energy initial, next-to-last, final = 
      406102192731.826  -49.2468106271885  -49.4736164132377
  Force two-norm initial, final = 1.611544e+13 0.4698777
  Force max component initial, final = 9.7311218e+12 0.060278742
  Final line search alpha, max atom move = 1 0.060278742
  Iterations, force evaluations = 100 111

MPI task timing breakdown:
Section |  min time  |  avg time  |  max time  |%varavg| %total
---------------------------------------------------------------
Pair    | 0.51905    | 0.67014    | 0.86363    |  10.2 | 74.05
Bond    | 5.3479e-05 | 5.651e-05  | 6.465e-05  |   0.0 |  0.01
Neigh   | 0.0081652  | 0.0099702  | 0.012303   |   1.0 |  1.10
Comm    | 0.025369   | 0.22102    | 0.37384    |  17.9 | 24.42
Output  | 3.627e-05  | 3.6971e-05 | 3.9109e-05 |   0.0 |  0.00
Modify  | 0          | 0          | 0          |   0.0 |  0.00
Other   |            | 0.003711   |            |       |  0.41

Nlocal:         101.25 ave         122 max          82 min
Histogram: 1 1 0 3 3 3 3 1 0 1
Nghost:        5093.12 ave        5148 max        5033 min
Histogram: 1 1 0 4 3 1 2 0 1 3
Neighs:        51646.9 ave       66623 max       41826 min
Histogram: 2 2 3 3 1 2 1 1 0 1

Total # of neighbors = 826351
Ave neighs/atom = 510.09321
Ave special neighs/atom = 0
Neighbor list builds = 7
Dangerous builds = 0
timestep 0.0005
fix 1 all nvt temp 300.0 300.0 $(100.0*dt)
fix 1 all nvt temp 300.0 300.0 0.050000000000000002776
fix removeMomentum all momentum 1 linear 1 1 1
dump 1 all custom 1000 ljg2_nvt_45/ca.traj id mol type mass x y z
dump_modify 1 sort id
run 2000000
Generated 0 of 0 mixed pair_coeff terms from geometric mixing rule
Per MPI rank memory allocation (min/avg/max) = 2.289e+04 | 2.289e+04 | 2.289e+04 Mbytes
   Step          Temp          E_pair         E_mol          TotEng         Press     
       101   0             -49.473616      0             -49.473616      753.79739    
      1000   163.34734     -45.569955      0             -11.385902      1109.9254    
      2000   303.07142     -13.022733      0              50.401682      1710.5755    
      3000   296.03454     -8.22005        0              53.731742      2034.78      
      4000   297.4512      -5.147657       0              57.100603      2134.1169    
      5000   296.51581     -6.5838822      0              55.468625      1954.3752    
      6000   307.5086      -2.9876689      0              61.365324      2236.3901    
      7000   304.84374     -4.5303096      0              59.265002      2124.099     
      8000   296.18396     -5.809062       0              56.173999      2070.6214    
      9000   296.45055     -6.7468993      0              55.291953      2046.6891    
     10000   301.71883     -5.9920044      0              57.149351      2047.3354    
     11000   299.30889     -3.7252358      0              58.911787      2010.643     
     12000   298.84712     -4.1722672      0              58.368119      2066.1621    
     13000   292.8365      -4.8696594      0              56.412873      2000.5112    
     14000   299.49702     -6.4403992      0              56.235994      2007.546     
     15000   298.23137     -3.9066722      0              58.504856      2062.8295    
     16000   307.56166     -4.9945742      0              59.369523      2085.3929    
     17000   300.67063     -3.599034       0              59.322962      2100.2749    
     18000   292.60772     -3.9876087      0              57.247045      1991.8224    
     19000   296.92988     -4.5703385      0              57.568823      2042.8569    
     20000   298.06877     -4.5933365      0              57.784163      2148.6502    
     21000   299.60326     -5.4272042      0              57.271421      2145.2729    
     22000   305.23973     -4.0289033      0              59.849278      2076.2508    
     23000   291.58978     -5.201909       0              55.819718      2083.7976    
     24000   307.22075     -3.5697598      0              60.722995      2180.0371    
     25000   295.28014     -6.3962364      0              55.39768       1986.6036    
     26000   295.77868     -5.6441696      0              56.254079      2124.2914    
     27000   295.03599     -5.6483061      0              56.094518      2138.207     
     28000   302.00157     -3.6070256      0              59.5935        2110.7582    
     29000   293.04787     -5.5723691      0              55.754396      2047.4117    
     30000   301.11804     -3.553701       0              59.461927      2036.2159    
     31000   303.08646     -4.3295075      0              59.098055      2222.0511    
     32000   301.35042     -4.90172        0              58.162538      2156.6318    
     33000   301.90164     -4.2093695      0              58.970242      2095.3123    
     34000   309.85564     -4.0931616      0              60.751002      2146.9457    
     35000   299.60544     -5.4340967      0              57.264984      2001.5401    
     36000   300.58251     -4.0129759      0              58.89058       2085.9907    
     37000   293.34849     -3.8845092      0              57.505166      2116.9432    
     38000   304.76253     -4.0761018      0              59.702215      2062.1467    
     39000   302.13426     -5.5972458      0              57.631048      2176.2076    
     40000   294.44623     -3.6093585      0              58.010043      2212.2219    
     41000   308.05384     -4.2302569      0              60.23684       2158.8425    
     42000   303.25737     -4.8967716      0              58.566557      2163.5215    
     43000   298.61056     -2.9815307      0              59.509351      2111.8058    
     44000   308.10446     -3.9443455      0              60.533344      2150.2801    
     45000   290.61118     -2.6583692      0              58.158464      2178.324     
     46000   291.71531     -4.4617062      0              56.586191      2085.5275    
     47000   295.96036     -5.467309       0              56.46896       1989.5028    
     48000   299.56065     -1.8525351      0              60.837174      2136.4763    
     49000   305.20234     -5.5929385      0              58.27742       1938.9099    
     50000   307.7282      -3.311287       0              61.087663      2152.9295    
     51000   300.78445     -4.5166293      0              58.429186      2183.6146    
     52000   291.70335     -4.0779803      0              56.967414      2145.9434    
     53000   303.47981     -4.1929141      0              59.316966      2089.5627    
     54000   300.88022     -5.5797035      0              57.386155      2032.6691    
     55000   298.79179     -4.1898533      0              58.338954      2121.5678    
     56000   302.17379     -3.9650233      0              59.271543      2116.5294    
     57000   298.39876     -3.1126991      0              59.333858      2134.3994    
     58000   297.27452     -5.6607843      0              56.550501      1962.335     
     59000   297.01542     -5.1897541      0              56.967309      2152.2672    
     60000   312.03001     -3.8423832      0              61.456816      2147.3521    
     61000   280.30214     -5.6422324      0              53.017206      2003.2342    
     62000   304.10332     -6.0350977      0              57.605266      2036.4034    
     63000   298.75608     -2.6862092      0              59.835125      2106.7552    
     64000   307.81706     -3.1816239      0              61.235922      2152.0518    
     65000   309.06973     -2.8036153      0              61.876079      2186.0684    
     66000   287.67082     -3.5666923      0              56.634806      2126.0308    
     67000   306.69837     -4.4026341      0              59.7808        2146.2569    
     68000   291.98529     -6.2076904      0              54.896705      2056.0999    
     69000   292.89732     -4.4207336      0              56.874525      2000.5034    
     70000   304.70745     -5.3659785      0              58.400812      2059.274     
     71000   295.87448     -5.0197334      0              56.898562      2151.1592    
     72000   305.69464     -5.1344797      0              58.838901      2096.9493    
     73000   289.88588     -5.2390049      0              55.426043      1997.6338    
     74000   292.43055     -4.1852288      0              57.012348      1984.6345    
     75000   304.33545     -5.2227979      0              58.466144      2083.3298    
     76000   301.75992     -6.710607       0              56.439347      1981.9977    
     77000   302.5786      -4.3925357      0              58.928746      2156.4575    
     78000   306.98663     -4.2150276      0              60.028733      2106.8181    
     79000   296.73623     -2.9536883      0              59.144948      2172.857     
     80000   312.4491      -5.0489977      0              60.337905      2183.7707    
     81000   299.37558     -4.8585263      0              57.792452      2120.3139    
     82000   302.95288     -5.8818688      0              57.51774       2088.411     
     83000   300.64269     -5.0791706      0              57.836979      2041.459     
     84000   299.62633     -2.4110861      0              60.292367      2195.0719    
     85000   291.28101     -5.0062794      0              55.950732      2119.6766    
     86000   302.10683     -5.4224203      0              57.800133      2060.6024    
     87000   290.07549     -5.7938297      0              54.910898      2131.3386    
     88000   301.03183     -5.4112702      0              57.586316      2110.3174    
     89000   291.7356      -5.4206232      0              55.631519      2042.4509    
     90000   290.94429     -4.7493234      0              56.137221      2054.1907    
     91000   297.28396     -5.0366395      0              57.176621      2120.0967    
     92000   289.51856     -4.5817795      0              56.0064        1983.2715    
     93000   298.35991     -5.7658715      0              56.672556      2106.6483    
     94000   298.82877     -4.0303687      0              58.506178      2078.298     
     95000   298.80025     -4.2563525      0              58.274225      2152.2557    
     96000   303.94936     -5.2059555      0              58.402189      2137.6497    
     97000   298.33509     -6.0164319      0              56.416802      2055.6502    
     98000   305.70765     -5.3140538      0              58.662051      2097.8634    
     99000   304.95043     -4.8864411      0              58.931199      2140.8903    
    100000   290.59796     -3.7437594      0              57.070308      2072.8544    
    101000   301.33154     -3.6983505      0              59.361957      2153.0365    
    102000   311.75114     -5.3190174      0              59.921821      1961.5465    
    103000   301.92846     -5.0108793      0              58.174346      2075.6669    
    104000   292.53451     -3.8311783      0              57.388155      2184.4704    
    105000   307.75942     -4.2884858      0              60.116998      2150.4159    
    106000   295.23848     -5.806224       0              55.978974      2062.2506    
    107000   299.19197     -3.791369       0              58.821186      2172.7814    
    108000   308.52263     -5.9072226      0              58.657979      2151.4793    
    109000   300.65215     -5.0902529      0              57.827876      2046.3087    
    110000   303.79854     -4.3643764      0              59.212205      2156.8613    
    111000   298.68682     -3.7197986      0              58.787043      2117.1928    
    112000   291.17892     -6.1116052      0              54.824041      2055.8253    
    113000   309.19196     -2.0752323      0              62.630041      2162.9589    
    114000   297.22342     -5.5005341      0              56.700058      2014.8438    
    115000   302.48714     -3.8417093      0              59.460432      2151.5362    
    116000   295.75886     -4.3027345      0              57.591365      2086.3818    
    117000   299.23513     -4.3605357      0              58.26105       2196.598     
    118000   297.7787      -5.2808252      0              57.03597       2118.7133    
    119000   307.88037     -5.3115492      0              59.119245      2162.1842    
    120000   299.38717     -4.6897341      0              57.963671      1958.6421    
    121000   300.84351     -5.6614793      0              57.296696      1969.6262    
    122000   290.39246     -5.2925647      0              55.478498      2047.4596    
    123000   298.21161     -4.663939       0              57.743452      2122.5286    
    124000   305.08475     -4.6039118      0              59.241838      2298.8757    
    125000   307.1569      -4.4252016      0              59.85419       2165.0987    
    126000   301.38208     -5.65368        0              57.417204      2054.1003    
    127000   296.17059     -4.2881824      0              57.69208       2114.6578    
    128000   303.5368      -4.680726       0              58.84108       2067.3832    
    129000   303.7127      -4.904991       0              58.653626      2180.5016    
    130000   311.2827      -4.9553823      0              60.187425      1970.9297    
    131000   303.73459     -5.5418171      0              58.021381      2067.4157    
    132000   299.5684      -4.49856        0              58.19277       2086.5139    
    133000   291.1704      -4.2459604      0              56.687902      2187.4427    
    134000   308.21816     -5.912098       0              58.589387      2052.8626    
    135000   298.69905     -4.131771       0              58.377628      2114.0113    
    136000   305.11047     -4.3778478      0              59.473285      2066.6222    
    137000   296.4828      -4.0028566      0              58.042744      2183.3628    
    138000   297.39758     -5.6019839      0              56.635054      2096.7928    
    139000   307.5247      -5.6676923      0              58.68867       2056.9948    
    140000   302.21132     -4.8672917      0              58.377128      2066.8965    
    141000   303.53623     -3.792632       0              59.729054      2167.5798    
    142000   305.32237     -2.788231       0              61.107245      2053.1609    
    143000   297.11517     -4.7409131      0              57.437026      1967.4294    
    144000   307.55424     -5.7612173      0              58.601328      2091.1748    
    145000   301.50949     -6.1893059      0              56.908241      2027.758     
    146000   299.26383     -4.8462444      0              57.781348      2085.3398    
    147000   293.29675     -4.1521395      0              57.22671       2132.9973    
    148000   312.15425     -3.4278179      0              61.89738       2199.1253    
    149000   310.65763     -4.0410405      0              60.970958      2149.6497    
    150000   293.79425     -4.804802       0              56.67816       2167.5649    
    151000   293.93515     -4.0999961      0              57.412452      2105.0092    
    152000   294.22149     -2.4397751      0              59.132597      2130.7966    
    153000   303.3989      -3.5340749      0              59.958872      2089.7448    
    154000   307.92516     -4.3732231      0              60.066946      2154.8047    
    155000   306.90263     -4.6449512      0              59.58123       2035.8698    
    156000   299.47527     -4.3937648      0              58.278076      2069.4757    
    157000   304.72916     -4.9160576      0              58.855277      2030.1544    
    158000   312.10846     -4.7342631      0              60.581353      2125.2997    
    159000   296.90836     -4.9590273      0              57.175632      2142.1694    
    160000   295.05533     -4.2862567      0              57.460613      2143.0535    
    161000   300.3219      -2.797417       0              60.0516        2124.3007    
    162000   309.68344     -5.0195678      0              59.78856       2101.8818    
    163000   306.13254     -4.7164401      0              59.348583      2158.8875    
    164000   296.65502     -5.1605743      0              56.921067      2071.1141    
    165000   301.37922     -3.2700185      0              59.800266      2161.4672    
    166000   302.91964     -5.2748395      0              58.117812      2055.1129    
    167000   308.45461     -5.4939909      0              59.056975      1986.2545    
    168000   295.08397     -4.2214719      0              57.531392      2094.4667    
    169000   297.14103     -4.5247235      0              57.658626      2149.3659    
    170000   293.62138     -5.0192743      0              56.42751       2111.9764    
    171000   297.76268     -4.9774976      0              57.335947      2058.6851    
    172000   301.13025     -5.1416875      0              57.876494      2071.2727    
    173000   287.56713     -5.1763409      0              55.003458      2061.3318    
    174000   299.23643     -5.980568       0              56.64129       2090.5908    
    175000   304.67395     -5.5902706      0              58.169509      2105.7989    
    176000   307.02128     -6.4670374      0              57.783973      2076.8817    
    177000   301.71653     -5.3966479      0              57.744227      2065.3643    
    178000   299.85238     -5.6280944      0              57.122666      1937.7205    
    179000   304.9137      -4.9868897      0              58.823064      2023.4898    
    180000   288.84523     -4.9233147      0              55.523955      2088.9378    
    181000   307.16585     -3.829628       0              60.451636      2197.1047    
    182000   309.42032     -5.1501021      0              59.60296       2127.9163    
    183000   302.11437     -4.3086046      0              58.915527      2063.486     
    184000   304.12172     -5.8179796      0              57.826233      1940.0446    
    185000   287.64793     -3.1831171      0              57.013591      2089.1139    
    186000   306.11565     -5.9526502      0              58.108837      1981.0198    
    187000   295.8788      -3.1865618      0              58.732638      2189.8397    
    188000   309.66706     -3.1748454      0              61.629853      2156.8867    
    189000   298.63064     -5.5371424      0              56.957941      2016.5681    
    190000   299.38436     -6.3765354      0              56.276281      2041.1667    
    191000   298.61073     -4.2027126      0              58.288204      2116.0437    
    192000   306.86875     -4.7868922      0              59.432199      2113.2842    
    193000   296.81473     -3.9977806      0              58.117283      2169.8392    
    194000   303.60229     -5.475388       0              58.060123      2031.3111    
    195000   295.55193     -3.5655323      0              58.285264      2075.4493    
    196000   300.90682     -5.6425273      0              57.328898      2117.9089    
    197000   310.82176     -5.9937393      0              59.052606      2048.3524    
    198000   300.41086     -4.7285575      0              58.139077      2040.3496    
    199000   295.76093     -3.5894863      0              58.305047      2156.9132    
    200000   296.04756     -2.9973701      0              58.957147      2226.8237    
    201000   296.34207     -4.8772673      0              57.138883      2077.1175    
    202000   300.93353     -3.476311       0              59.500703      2127.8437    
    203000   304.2165      -4.8754126      0              58.788635      2087.0685    
    204000   292.20986     -3.6962774      0              57.455115      2201.9663    
    205000   294.2811      -5.0681132      0              56.516733      2115.2538    
    206000   306.56451     -4.101725       0              60.053698      2044.3858    
    207000   295.22564     -3.3774476      0              58.405063      2220.3432    
    208000   304.06015     -4.7814796      0              58.849848      2090.6055    
    209000   304.50171     -3.7921473      0              59.931588      2117.3019    
    210000   292.90941     -4.7073775      0              56.590412      1982.3624    
    211000   295.45245     -5.650399       0              56.179578      2083.0479    
    212000   306.21505     -5.1773152      0              58.904975      2118.071     
    213000   293.19542     -6.2078589      0              55.149785      2119.2703    
    214000   307.97528     -5.5203023      0              58.930355      2003.6027    
    215000   306.21169     -3.5001734      0              60.581412      2060.4567    
    216000   304.23592     -4.9324955      0              58.735616      2097.5237    
    217000   307.98105     -5.5464374      0              58.905426      2106.472     
    218000   291.36532     -4.8196403      0              56.155014      1980.9845    
    219000   300.88132     -5.097553       0              57.868536      2202.4715    
    220000   301.83392     -5.2005018      0              57.964939      2010.68      
    221000   292.86456     -3.8099344      0              57.47847       2047.2744    
    222000   302.52934     -5.1125554      0              58.198417      2053.9511    
    223000   297.66316     -6.5201361      0              55.77248       1963.4043    
    224000   297.46234     -5.672066       0              56.578525      2094.967     
    225000   301.6643      -3.8378797      0              59.292065      2183.8464    
    226000   308.8357      -4.9037769      0              59.726942      2036.3658    
    227000   290.70514     -4.3004954      0              56.536001      2205.5891    
    228000   293.94782     -5.0175627      0              56.497536      2030.1959    
    229000   297.29669     -3.2923938      0              58.923532      2165.1663    
    230000   295.35059     -5.0695991      0              56.739061      2024.2017    
    231000   307.68157     -3.6446195      0              60.744571      2133.6023    
    232000   310.17866     -5.0127845      0              59.898978      2145.1424    
    233000   304.24665     -3.5283037      0              60.142055      2062.8902    
    234000   295.62956     -3.5678963      0              58.299144      2064.0702    
    235000   305.69932     -5.658847       0              58.315514      2091.6709    
    236000   296.28808     -4.4505505      0              57.5543        2232.5631    
    237000   299.28668     -5.1963765      0              57.435997      2078.6774    
    238000   298.40854     -4.6340129      0              57.814592      2052.7191    
    239000   302.0927      -4.258557       0              58.96104       2118.8614    
    240000   299.39552     -6.3185019      0              56.336649      2093.0306    
    241000   295.32103     -5.0407065      0              56.761768      2094.3554    
    242000   300.00253     -4.1415182      0              58.640663      2080.1285    
    243000   299.12522     -4.2417368      0              58.356848      2156.6909    
    244000   298.76785     -4.6809137      0              57.842884      2027.946     
    245000   300.62157     -4.9731493      0              57.938581      2027.3572    
    246000   302.34447     -4.9002161      0              58.372068      2077.9637    
    247000   311.37498     -4.3418294      0              60.820291      2137.8608    
    248000   294.5074      -4.5290409      0              57.103163      2088.2532    
    249000   297.68565     -6.7672717      0              55.530052      1976.356     
    250000   307.45869     -4.9419986      0              59.400551      2075.1301    
    251000   308.72958     -4.5607732      0              60.047738      2150.5542    
    252000   304.64616     -4.743041       0              59.010923      2047.1726    
    253000   292.76152     -5.4852962      0              55.781543      2019.3089    
    254000   296.51693     -3.7319042      0              58.320839      2277.3822    
    255000   304.03275     -4.1093144      0              59.516281      2089.1419    
    256000   309.06933     -5.1664381      0              59.513173      2048.4431    
    257000   298.99873     -3.6174589      0              58.954656      2113.5153    
    258000   305.92588     -5.6601237      0              58.361651      1990.2087    
    259000   297.2674      -3.0261751      0              59.183621      2248.9356    
    260000   297.90172     -3.927814       0              58.414727      2230.6805    
    261000   298.18642     -4.719727       0              57.682393      2138.2241    
    262000   290.06348     -3.9598658      0              56.742349      2118.2662    
    263000   301.43292     -3.4929392      0              59.588584      2230.5543    
    264000   298.12336     -4.589127       0              57.799797      2125.2055    
    265000   296.24064     -4.7624373      0              57.232487      2154.2576    
    266000   303.45122     -4.2823866      0              59.22151       2170.5554    
    267000   304.61008     -4.6771336      0              59.069281      2127.713     
    268000   289.63758     -3.5800021      0              57.033085      2077.6267    
    269000   300.3182      -4.6816846      0              58.166558      2110.6111    
    270000   295.82611     -3.5061209      0              58.402053      2106.0697    
    271000   300.9881      -4.6306329      0              58.3578        2014.7917    
    272000   295.97078     -4.4971784      0              57.441271      2126.1193    
    273000   291.20203     -4.935071       0              56.005411      2059.7325    
    274000   308.27479     -4.102915       0              60.41042       2122.4851    
    275000   302.18809     -5.3841931      0              57.855366      2079.1754    
    276000   298.65442     -5.8392949      0              56.660765      2004.6068    
    277000   298.00632     -4.1740752      0              58.190356      2064.4094    
    278000   293.47041     -5.251136       0              56.164055      1972.0138    
    279000   303.98802     -4.8487085      0              58.767526      2121.1954    
    280000   304.79447     -4.154069       0              59.630932      2106.3686    
    281000   297.11454     -3.2278491      0              58.949957      2171.3783    
    282000   298.7054      -5.3725338      0              57.138195      2049.3328    
    283000   295.95068     -4.2642955      0              57.669947      2103.016     
    284000   292.90216     -3.4929134      0              57.803359      2015.6005    
    285000   297.04539     -5.2968612      0              56.866473      2048.6293    
    286000   293.36157     -4.6489672      0              56.743447      2014.882     
    287000   306.01185     -6.3045257      0              57.735241      2122.2338    
    288000   285.51603     -4.0003454      0              55.750216      2123.0258    
    289000   296.5387      -3.0664014      0              58.990897      2272.6596    
    290000   301.65141     -4.2554863      0              58.871761      2073.0043    
    291000   308.26933     -3.6226883      0              60.889504      2163.0122    
    292000   301.30959     -4.5607774      0              58.494936      2145.4771    
    293000   302.5448      -4.5732321      0              58.740976      2086.4203    
    294000   295.22749     -4.6545901      0              57.12831       2118.6943    
    295000   300.61819     -4.4897433      0              58.421279      2053.3732    
    296000   311.20287     -3.3444774      0              61.781624      2135.0604    
    297000   296.32071     -4.168044       0              57.843636      2103.1342    
    298000   299.77337     -6.2230546      0              56.51117       2141.017     
    299000   290.96808     -5.1714594      0              55.720063      2033.8562    
    300000   307.50217     -3.6236234      0              60.728025      2118.0984    
    301000   296.57068     -3.3330418      0              58.73095       2083.1574    
    302000   298.94122     -5.2880966      0              57.271983      2046.109     
    303000   304.32192     -5.5462713      0              58.139838      2144.8395    
    304000   292.4191      -5.710939       0              55.484243      2069.8542    
    305000   293.35301     -5.1297493      0              56.260872      2048.0513    
    306000   289.50017     -5.5453796      0              55.038951      2008.7382    
    307000   296.00158     -5.376863       0              56.568031      2080.5811    
    308000   304.87417     -6.3335411      0              57.46814       2024.4634    
    309000   299.06216     -3.1039623      0              59.481427      2139.1096    
    310000   293.28981     -3.2147861      0              58.162611      2039.4984    
    311000   301.54269     -4.8933908      0              58.211104      2050.7153    
    312000   302.2895      -3.9994657      0              59.261316      2144.9681    
    313000   305.60937     -4.2957012      0              59.659835      2074.4254    
    314000   312.16059     -4.7824273      0              60.544099      2112.9949    
    315000   292.8963      -4.7265211      0              56.568525      2096.1938    
    316000   293.51263     -3.8837274      0              57.540299      2111.6721    
    317000   307.7389      -5.551332       0              58.849856      2118.0077    
    318000   292.31139     -5.6355708      0              55.537069      2080.5125    
    319000   303.60164     -5.366505       0              58.16887       2040.1924    
    320000   287.87804     -4.2793192      0              55.965545      2052.1798    
    321000   289.26469     -4.3876288      0              56.147422      2161.1339    
    322000   305.97243     -5.5952117      0              58.436304      2057.874     
    323000   289.65628     -2.5912671      0              58.025733      2191.4995    
    324000   297.04359     -4.8727861      0              57.290172      2219.1438    
    325000   307.00679     -4.570428       0              59.67755       2068.6769    
    326000   299.87772     -3.4889373      0              59.267126      2129.4226    
    327000   307.29232     -5.4527266      0              58.855006      2061.0536    
    328000   293.41575     -3.0605396      0              58.343212      2189.8864    
    329000   299.82035     -4.7406177      0              58.003439      2048.5915    
    330000   290.42902     -3.9967575      0              56.781956      2159.3857    
    331000   299.44258     -3.9622642      0              58.702736      2132.4623    
    332000   308.16788     -4.9567952      0              59.534168      2156.6958    
    333000   294.68957     -4.0083645      0              57.661963      2139.484     
    334000   308.72666     -4.4269235      0              60.180977      2085.9267    
    335000   295.62633     -3.2379863      0              58.628379      2100.9658    
    336000   297.24903     -4.01108        0              58.19487       2131.9286    
    337000   298.39028     -4.6995255      0              57.745256      2080.4475    
    338000   300.6811      -5.8705943      0              57.053593      2163.7672    
    339000   297.58388     -4.4586638      0              57.817363      1965.4478    
    340000   295.23669     -5.2615376      0              56.523287      1997.0718    
    341000   309.60004     -3.0511755      0              61.739497      2315.9359    
    342000   303.23839     -5.1758413      0              58.283516      1995.6467    
    343000   302.03316     -3.6434841      0              59.563653      2170.268     
    344000   300.21684     -4.9700101      0              57.857022      2015.4833    
    345000   311.6074      -4.0284614      0              61.182297      2079.5192    
    346000   304.28116     -2.8568118      0              60.820768      2228.5621    
    347000   304.09009     -4.4551857      0              59.182408      2104.4787    
    348000   301.40697     -4.5407889      0              58.535304      2080.7028    
    349000   307.41294     -5.6318687      0              58.701106      2042.8501    
    350000   294.90171     -4.7573606      0              56.957361      1985.4509    
    351000   301.90959     -3.5269137      0              59.654362      2174.2918    
    352000   311.68815     -4.0506489      0              61.177008      2104.3599    
    353000   300.7378      -3.8357534      0              59.1003        2158.4706    
    354000   307.74152     -4.5616108      0              59.840126      2163.8733    
    355000   301.18549     -5.7517979      0              57.277944      2000.3983    
    356000   296.18151     -2.6487755      0              59.333773      2055.827     
    357000   308.34677     -4.246669       0              60.28173       2159.8202    
    358000   298.62454     -6.2392525      0              56.254554      1969.9322    
    359000   291.07526     -4.0454788      0              56.868473      2162.7053    
    360000   305.06245     -3.4197474      0              60.421335      2122.9283    
    361000   308.81261     -4.0125148      0              60.613371      2167.1702    
    362000   301.55364     -5.0935477      0              58.013239      2011.1138    
    363000   302.48087     -6.0962458      0              57.204584      2081.6739    
    364000   304.69124     -4.628026       0              59.135372      2061.2563    
    365000   306.7086      -3.9321903      0              60.253386      2110.2097    
    366000   309.08445     -2.9026376      0              61.780138      2150.3431    
    367000   285.40905     -3.8406735      0              55.887499      2027.7557    
    368000   302.15925     -6.2231707      0              57.010354      2022.5235    
    369000   295.27908     -6.0695031      0              55.724192      2053.4989    
    370000   295.50167     -5.3596869      0              56.48059       2091.2839    
    371000   307.06439     -6.1467201      0              58.113313      2090.5       
    372000   296.29539     -5.8489251      0              56.157456      2051.0846    
    373000   297.49685     -4.3750207      0              57.882791      2090.8275    
    374000   300.87796     -3.9056753      0              59.05971       2101.6922    
    375000   302.54666     -6.2727315      0              57.041866      1993.9501    
    376000   296.61031     -5.4464826      0              56.625802      2082.3789    
    377000   297.46344     -6.3407872      0              55.910035      1954.5905    
    378000   305.72278     -4.2465373      0              59.732734      2095.6758    
    379000   298.91229     -4.395205       0              58.158819      2029.2445    
    380000   298.06805     -3.4361871      0              58.941163      2131.1042    
    381000   309.04187     -3.9522547      0              60.72161       2150.5906    
    382000   312.46614     -4.7675378      0              60.62293       2155.4788    
    383000   298.96398     -6.1735935      0              56.391248      2002.0405    
    384000   293.80761     -3.8327425      0              57.653014      2150.8019    
    385000   306.68596     -3.8030771      0              60.37776       2117.4432    
    386000   304.45732     -6.1218879      0              57.592558      2030.769     
    387000   293.15843     -4.9687166      0              56.381187      2012.1638    
    388000   296.04023     -5.6148869      0              56.338096      2082.5761    
    389000   294.39565     -4.4029532      0              57.205864      2108.3464    
    390000   298.03806     -2.7537823      0              59.617291      2134.9893    
    391000   284.87384     -6.2799907      0              53.336178      2102.093     
    392000   304.92163     -4.1663421      0              59.645271      2070.6248    
    393000   307.63596     -4.7688013      0              59.610844      2099.3121    
    394000   306.36863     -4.7141833      0              59.400246      2111.3767    
    395000   298.82916     -4.4663409      0              58.070287      2120.9325    
    396000   288.43586     -4.2252193      0              56.13638       1946.6965    
    397000   291.89907     -4.3213629      0              56.76499       2076.7324    
    398000   299.88744     -3.7480649      0              59.010031      2114.5601    
    399000   296.78886     -4.8403049      0              57.269345      2089.7597    
    400000   299.33226     -2.547111       0              60.094802      2248.1042    
    401000   303.24088     -4.7824367      0              58.677441      2065.1255    
    402000   300.97953     -4.0082721      0              58.978369      2092.944     
    403000   294.78137     -4.5786691      0              57.110869      2033.6834    
    404000   293.60978     -2.3788064      0              59.065551      2148.6102    
    405000   293.41152     -4.5619661      0              56.840901      2071.8095    
    406000   294.11316     -4.3422628      0              57.207438      2114.4672    
    407000   291.72424     -6.4502769      0              54.59949       2016.7755    
    408000   293.01087     -5.8914984      0              55.427523      2105.1528    
    409000   308.90367     -3.5202373      0              61.124705      2124.857     
    410000   297.18013     -4.8776204      0              57.313911      2122.9535    
    411000   294.31276     -3.9938097      0              57.597662      2105.3135    
    412000   290.86374     -3.803034       0              57.066653      2095.7925    
    413000   312.50732     -4.3715641      0              61.027522      2109.9874    
    414000   300.10029     -5.9785209      0              56.82412       1964.839     
    415000   301.09517     -4.9467945      0              58.064046      2054.4947    
    416000   296.395       -4.215472       0              57.811755      2076.7168    
    417000   307.37918     -4.6692721      0              59.656638      2076.9638    
    418000   314.96267     -4.7268096      0              61.186113      2080.5391    
    419000   292.15998     -4.4889726      0              56.651981      2167.3417    
    420000   313.98755     -4.4583638      0              61.250494      2142.9528    
    421000   286.29918     -3.6994426      0              56.21501       2068.9031    
    422000   301.03428     -4.4869125      0              58.511187      2093.6391    
    423000   304.42277     -4.1636962      0              59.543519      2163.2393    
    424000   301.49175     -3.4968875      0              59.596947      2117.7141    
    425000   294.89255     -3.0581165      0              58.654688      2123.3757    
    426000   295.15163     -4.6288707      0              57.138153      2108.7041    
    427000   297.8275      -5.6459416      0              56.681066      2074.9137    
    428000   287.07275     -6.5439681      0              53.532371      1944.5753    
    429000   305.37164     -4.8006004      0              59.105186      2195.615     
    430000   303.1286      -4.4466767      0              58.989704      2062.9207    
    431000   295.47347     -3.23879        0              58.595585      2181.9126    
    432000   297.10191     -4.7909879      0              57.384174      1986.0671    
    433000   307.60223     -5.7964         0              58.576188      2152.1693    
    434000   311.40035     -5.2954897      0              59.871938      2098.8313    
    435000   286.24798     -4.8499352      0              55.053802      2060.6884    
    436000   303.73809     -5.8739438      0              57.689987      2093.953     
    437000   295.00876     -4.3495194      0              57.387605      2115.8255    
    438000   297.82809     -5.913629       0              56.413504      1984.3065    
    439000   301.54449     -5.5464377      0              57.558434      2103.9472    
    440000   307.47143     -4.4818522      0              59.863362      2034.6151    
    441000   306.8842      -6.2864479      0              57.935877      1873.1589    
    442000   300.64067     -4.8536857      0              58.062041      1980.9528    
    443000   293.12411     -5.2533258      0              56.089395      2023.4941    
    444000   303.18333     -3.5273263      0              59.920508      2175.967     
    445000   303.87295     -3.076927       0              60.515226      2291.9458    
    446000   295.57856     -4.3639156      0              57.492452      2119.7597    
    447000   305.41988     -4.4690384      0              59.446844      2085.7926    
    448000   297.99413     -5.9217088      0              56.44017       2040.7726    
    449000   296.12691     -5.075524       0              56.895598      2002.5923    
    450000   298.32834     -4.9070029      0              57.524818      2076.1477    
    451000   308.00508     -4.8500644      0              59.606829      2092.0953    
    452000   292.10093     -6.108631       0              55.019966      1980.1051    
    453000   293.50759     -5.5673213      0              55.855651      2064.2398    
    454000   299.27779     -4.7660789      0              57.864436      2035.9171    
    455000   299.14111     -5.8265037      0              56.775406      1982.5837    
    456000   301.59587     -4.8607531      0              58.25487       2080.9186    
    457000   298.00093     -3.6697381      0              58.693564      2090.779     
    458000   299.91555     -4.4968607      0              58.267119      2163.2717    
    459000   304.71723     -3.5170824      0              60.251756      2174.3996    
    460000   304.47927     -5.0454479      0              58.673591      1991.7705    
    461000   304.93988     -5.1379315      0              58.6775        1999.4102    
    462000   303.64862     -5.7899451      0              57.755262      2029.1943    
    463000   304.90676     -4.9482672      0              58.860233      1997.0245    
    464000   295.54178     -5.4558399      0              56.392831      2067.5031    
    465000   300.28516     -4.9000653      0              57.941262      2139.3798    
    466000   308.12719     -4.2353346      0              60.247112      2131.4019    
    467000   304.19723     -2.8728637      0              60.787152      2137.6749    
    468000   299.63512     -5.3600755      0              57.345218      2101.7844    
    469000   300.31661     -4.3691959      0              58.478713      2030.5984    
    470000   286.80437     -3.4058399      0              56.614335      2112.4141    
    471000   300.78769     -6.0777304      0              56.868763      2123.6036    
    472000   294.867       -4.9995003      0              56.707957      2030.8344    
    473000   290.89258     -4.6659589      0              56.209764      2067.1912    
    474000   309.37686     -2.6160487      0              62.127921      2205.6944    
    475000   295.85315     -4.5369035      0              57.376929      2185.2745    
    476000   293.52775     -2.9779073      0              58.449284      2169.0294    
    477000   298.49304     -4.8108356      0              57.655453      2112.7501    
    478000   297.37171     -5.9214176      0              56.310208      2008.9171    
    479000   293.89834     -5.6795887      0              55.825155      2057.416     
    480000   294.59384     -4.8186824      0              56.831612      2052.3077    
    481000   306.39283     -5.0592182      0              59.060276      2018.2473    
    482000   298.28216     -5.5184955      0              56.903662      2028.226     
    483000   313.00629     -5.3958942      0              60.107612      2072.2215    
    484000   300.69132     -4.3150853      0              58.611242      2132.1805    
    485000   295.92491     -3.4364173      0              58.492433      2245.3236    
    486000   295.04152     -4.0993049      0              57.644676      2100.0358    
    487000   305.83996     -4.6211173      0              59.382677      2073.9025    
    488000   299.11125     -4.5845225      0              58.01114       2165.252     
    489000   312.42424     -5.4293381      0              59.952361      2089.6517    
    490000   298.88193     -3.76446        0              58.783213      2089.3032    
    491000   287.71497     -4.0308857      0              56.179852      2051.0109    
    492000   287.14146     -6.0788275      0              54.011891      2146.9638    
    493000   308.34756     -4.2659269      0              60.262637      2083.2806    
    494000   296.63631     -4.9076189      0              57.170106      2123.0195    
    495000   299.09373     -5.2304615      0              57.361533      2031.1559    
    496000   295.3892      -2.1302138      0              59.686526      2173.5295    
    497000   300.7606      -3.4396677      0              59.501156      2148.3769    
    498000   301.90247     -5.250733       0              57.929053      2091.9385    
    499000   306.32399     -5.1747481      0              58.93034       2090.6145    
    500000   302.03352     -4.3572958      0              58.849917      2182.7103    
    501000   302.28592     -5.0444078      0              58.215624      2160.2579    
    502000   306.04065     -3.9914679      0              60.054325      2119.1906    
    503000   294.88458     -3.225253       0              58.485884      2050.0197    
    504000   301.869       -5.9479006      0              57.224881      2016.617     
    505000   295.338       -5.3909216      0              56.415104      2068.779     
    506000   297.69464     -4.4394627      0              57.859741      2148.3986    
    507000   298.37107     -5.239076       0              57.201687      2106.404     
    508000   306.58583     -4.9688716      0              59.191012      2087.5479    
    509000   304.29813     -3.9766295      0              59.704503      2110.6707    
    510000   305.31892     -3.361368       0              60.533387      2170.3064    
    511000   294.67505     -4.2502201      0              57.417069      2051.035     
    512000   307.37762     -5.5944176      0              58.731165      2075.2883    
    513000   295.31008     -5.7036392      0              56.096543      2099.5905    
    514000   301.20316     -5.6320273      0              57.401413      2129.9466    
    515000   295.82479     -3.9473792      0              57.960517      2184.0093    
    516000   309.57378     -6.2808836      0              58.504295      1991.6621    
    517000   302.83696     -2.7710815      0              60.604267      2160.9736    
    518000   300.02222     -5.2458255      0              57.540477      2065.6112    
    519000   305.86886     -5.5451541      0              58.464688      2113.4518    
    520000   309.86055     -4.9492614      0              59.89593       2063.219     
    521000   308.45331     -2.160775       0              62.389919      2231.051     
    522000   293.86837     -3.7849604      0              57.713513      2146.6778    
    523000   306.50099     -4.9404505      0              59.201677      2080.5106    
    524000   300.97045     -5.2000764      0              57.784665      2033.4719    
    525000   288.35855     -5.2292319      0              55.116189      2084.8419    
    526000   303.06314     -5.8931038      0              57.529578      2058.7029    
    527000   301.50565     -4.6877657      0              58.408977      2109.8507    
    528000   303.07095     -4.3958866      0              59.02843       2199.741     
    529000   299.3176      -5.5274881      0              57.111358      2083.8617    
    530000   298.46641     -4.7126862      0              57.748029      2170.0756    
    531000   293.22416     -5.775502       0              55.588156      2043.5712    
    532000   304.09332     -4.4585479      0              59.179723      2092.1202    
    533000   300.05256     -4.4538041      0              58.338848      2149.8688    
    534000   296.01047     -5.8366027      0              56.110153      2061.6877    
    535000   290.24622     -4.3578461      0              56.382612      2042.7234    
    536000   284.35132     -5.5929668      0              53.913852      2057.6146    
    537000   299.06954     -3.3583054      0              59.228627      2092.4967    
    538000   306.17946     -6.009954       0              58.064887      2064.0291    
    539000   308.34372     -5.4414863      0              59.086274      2107.3887    
    540000   300.43376     -5.3083064      0              57.56412       1974.8925    
    541000   298.80329     -3.0308413      0              59.500373      2146.0783    
    542000   299.59711     -5.4645567      0              57.232783      1979.9825    
    543000   307.16426     -5.9026119      0              58.378321      1994.5621    
    544000   300.32658     -3.8314341      0              59.018562      2038.7883    
    545000   295.00196     -5.7614065      0              55.974296      2104.3157    
    546000   296.06504     -4.5297855      0              57.42839       2021.7722    
    547000   295.44906     -5.3984791      0              56.430788      2057.0146    
    548000   309.07704     -4.4127096      0              60.268514      2135.6676    
    549000   285.47189     -5.3031021      0              54.438221      2012.1853    
    550000   301.82955     -4.0574071      0              59.107119      2023.0034    
    551000   290.36175     -4.6655861      0              56.099049      2095.3332    
    552000   304.98353     -5.233777       0              58.590791      2033.8112    
    553000   302.56915     -5.1159955      0              58.203308      2120.3374    
    554000   299.64782     -5.2038321      0              57.504119      2191.9294    
    555000   297.42026     -4.715705       0              57.52608       2074.5323    
    556000   301.93022     -4.7612685      0              58.424324      2091.0316    
    557000   294.34994     -3.6291781      0              57.970073      2056.6055    
    558000   310.03989     -2.6776197      0              62.205102      2091.3678    
    559000   302.46266     -5.8267929      0              57.470226      2055.8964    
    560000   296.65642     -3.2551761      0              58.826757      2172.262     
    561000   300.34019     -3.1054208      0              59.747423      2191.9907    
    562000   290.82769     -3.4137928      0              57.44835       2095.3553    
    563000   299.11138     -4.4039371      0              58.191751      2055.0451    
    564000   292.7298      -5.0632353      0              56.196967      1955.0124    
    565000   297.43601     -3.7396059      0              58.505475      2163.7163    
    566000   298.51375     -3.9790145      0              58.491608      2149.1778    
    567000   291.919       -5.6582788      0              55.432246      1957.914     
    568000   292.56625     -4.6664056      0              56.559571      2125.6056    
    569000   297.80866     -4.4826986      0              57.840366      2090.3563    
    570000   297.32268     -4.3338746      0              57.88749       2214.1303    
    571000   305.00106     -4.9794429      0              58.848792      2110.0134    
    572000   308.21651     -5.1265453      0              59.374595      2091.068     
    573000   306.35606     -6.2178449      0              57.893955      2041.5583    
    574000   302.8389      -3.6613977      0              59.714357      2131.2443    
    575000   299.7783      -4.8267943      0              57.908462      2211.4812    
    576000   295.83713     -3.1221361      0              58.788343      2205.3253    
    577000   299.54608     -3.8217762      0              58.864884      2162.8485    
    578000   295.95955     -5.1682449      0              56.767853      2083.9808    
    579000   314.25292     -4.2345194      0              61.529873      2247.1698    
    580000   298.91552     -2.9556084      0              59.599093      2246.6364    
    581000   296.71338     -5.3707676      0              56.723087      2013.9674    
    582000   306.5601      -6.0494241      0              58.105075      2093.5413    
    583000   301.16917     -5.5183958      0              57.507932      2027.4991    
    584000   303.27733     -5.0503789      0              58.417127      2178.097     
    585000   309.64931     -4.2463805      0              60.554603      2157.75      
    586000   300.42883     -4.1767663      0              58.694628      2080.6699    
    587000   311.24142     -4.9526644      0              60.181503      2168.691     
    588000   298.47928     -6.3098987      0              56.153509      2004.6512    
    589000   296.52158     -3.5595175      0              58.494199      2129.3818    
    590000   297.21863     -3.7721757      0              58.427413      2033.5883    
    591000   299.80937     -3.1595888      0              59.582169      2095.4459    
    592000   298.15359     -5.7846134      0              56.610636      1976.4627    
    593000   302.68675     -4.6019723      0              58.741943      2043.312     
    594000   295.78268     -5.5660737      0              56.33301       2100.6644    
    595000   302.40515     -4.7797607      0              58.505224      2079.0256    
    596000   303.51858     -3.2124812      0              60.305511      2078.1587    
    597000   294.22932     -5.2305793      0              56.343431      2009.5522    
    598000   309.49101     -3.6241168      0              61.143739      2201.6195    
    599000   303.56594     -3.9216448      0              59.60626       2131.605     
    600000   293.27102     -6.2763197      0              55.097144      2105.8142    
    601000   302.87474     -5.2508573      0              58.132397      2084.3537    
    602000   299.41005     -3.6983762      0              58.959815      2222.7271    
    603000   299.23549     -4.7227054      0              57.898956      2138.9971    
    604000   287.72172     -6.0130593      0              54.199091      1995.8835    
    605000   302.09839     -4.218186       0              59.002602      2104.4607    
    606000   302.6328      -4.9096605      0              58.422965      2045.8546    
    607000   314.9337      -5.1530906      0              60.75377       2125.0163    
    608000   297.90984     -5.1788189      0              57.165421      2023.0742    
    609000   305.90805     -4.3586873      0              59.659356      2189.0311    
    610000   303.61798     -5.0283399      0              58.510456      2006.4642    
    611000   294.29965     -5.637931       0              55.950796      1941.8672    
    612000   295.23738     -4.3638697      0              57.421098      2132.9985    
    613000   295.51269     -4.6767368      0              57.165847      2068.2086    
    614000   307.13624     -4.799519       0              59.47555       2068.6435    
    615000   292.08509     -4.1389013      0              56.98638       2132.3661    
    616000   302.34327     -5.1618981      0              58.110136      2171.5387    
    617000   294.59448     -5.2911127      0              56.359314      2084.976     
    618000   293.93717     -5.9099847      0              55.602887      2063.3554    
    619000   301.85167     -5.0943332      0              58.074823      2045.1788    
    620000   297.84106     -4.5151998      0              57.814648      1946.3589    
    621000   290.71325     -4.7781751      0              56.060019      2160.3168    
    622000   299.40809     -4.3879346      0              58.269848      2169.5549    
    623000   293.80407     -3.1237951      0              58.361223      2259.3112    
    624000   303.02213     -4.9556003      0              58.4585        2073.6144    
    625000   289.94173     -5.0575257      0              55.61921       2050.8317    
    626000   310.36213     -5.7047815      0              59.245377      1988.2787    
    627000   296.79646     -3.4357778      0              58.675464      2178.4976    
    628000   290.53963     -3.6393981      0              57.162462      2038.4059    
    629000   292.12487     -4.9923128      0              56.141295      2008.4086    
    630000   287.41564     -4.2714995      0              55.876597      2213.5535    
    631000   305.06757     -4.6793238      0              59.16283       2068.5888    
    632000   294.95972     -4.9227162      0              56.804145      2032.2822    
    633000   303.19725     -4.5181928      0              58.932556      2104.5758    
    634000   301.42094     -6.1021936      0              56.976822      2106.9351    
    635000   292.3356      -4.9809854      0              56.196721      2073.116     
    636000   310.09632     -6.1445137      0              58.750017      2061.0818    
    637000   304.22065     -4.4107964      0              59.254121      2158.1784    
    638000   288.98474     -4.4731043      0              56.00336       2063.5928    
    639000   304.46395     -4.9748076      0              58.741025      2048.7293    
    640000   303.2036      -4.8627725      0              58.589303      2099.2771    
    641000   303.66223     -5.2285266      0              58.319529      2003.9838    
    642000   296.11733     -5.4228491      0              56.546268      2041.6178    
    643000   315.85017     -5.3620071      0              60.736645      2177.8183    
    644000   304.28911     -5.3902218      0              58.289021      2133.7887    
    645000   290.8237      -4.2384987      0              56.622809      2082.4907    
    646000   294.49537     -3.3359159      0              58.293771      2131.2449    
    647000   285.92198     -3.5478484      0              56.287666      2117.1988    
    648000   304.26963     -4.3611023      0              59.314066      2112.7385    
    649000   301.12725     -5.4732721      0              57.544283      1997.2914    
    650000   299.30849     -6.1000582      0              56.536881      2075.0064    
    651000   295.73749     -4.3632955      0              57.526333      2129.0898    
    652000   291.5539      -5.2742944      0              55.739824      2025.803     
    653000   298.73162     -4.0775747      0              58.43864       2094.7013    
    654000   292.67395     -4.1925381      0              57.055976      2093.2166    
    655000   303.80565     -5.1099236      0              58.468145      1995.6151    
    656000   295.24876     -3.8589993      0              57.92835       2156.3779    
    657000   303.67933     -3.903578       0              59.648055      2159.7438    
    658000   292.11218     -4.208157       0              56.922793      2072.2069    
    659000   297.63607     -4.2653462      0              58.021602      2179.2761    
    660000   299.81803     -2.7178962      0              60.025675      2073.6294    
    661000   312.76173     -4.4862196      0              60.966109      2165.574     
    662000   305.08116     -2.7996188      0              61.045378      2179.8181    
    663000   297.64455     -5.3795735      0              56.909149      2030.6422    
    664000   301.65185     -3.7826906      0              59.344647      2166.7678    
    665000   296.00174     -3.3033138      0              58.641613      2141.4079    
    666000   304.14814     -3.7070073      0              59.942734      2278.2722    
    667000   300.15849     -3.7319307      0              59.082888      2134.9016    
    668000   293.71134     -5.014886       0              56.450724      2033.1304    
    669000   294.76508     -4.2509241      0              57.435206      2160.8136    
    670000   300.15179     -6.6628034      0              56.150615      2089.7636    
    671000   297.09821     -7.52054        0              54.653849      2092.9391    
    672000   294.20577     -5.0729943      0              56.496086      2063.6299    
    673000   296.61323     -4.6222431      0              57.450653      2009.0333    
    674000   300.43868     -3.651963       0              59.221492      2194.4105    
    675000   301.25921     -2.9301945      0              60.114976      2193.6614    
    676000   296.70169     -4.8513866      0              57.240022      2072.9234    
    677000   290.46029     -4.4698135      0              56.315444      2066.3824    
    678000   308.89943     -4.1437395      0              60.500316      2156.3261    
    679000   314.98592     -4.9842814      0              60.933508      2028.128     
    680000   297.79231     -5.3252318      0              56.994412      2094.4103    
    681000   297.37025     -4.4927447      0              57.738575      2142.0879    
    682000   298.22882     -4.2520618      0              58.158933      2065.4366    
    683000   289.25696     -4.4623919      0              56.07104       2091.3919    
    684000   297.0448      -4.2197892      0              57.943421      2093.828     
    685000   290.31997     -3.8108944      0              56.944998      2156.0973    
    686000   295.40342     -5.2539336      0              56.565782      2122.9393    
    687000   307.88227     -6.2113239      0              58.219869      2053.2134    
    688000   295.55187     -4.7380008      0              57.112782      2046.1194    
    689000   307.3898      -5.0268288      0              59.301304      2081.4903    
    690000   298.1483      -3.2007462      0              59.193397      2099.7728    
    691000   306.63902     -4.7105389      0              59.460477      2056.6933    
    692000   303.01874     -4.3308286      0              59.082563      2172.6154    
    693000   288.29021     -3.0953589      0              57.23576       2070.7266    
    694000   313.46407     -3.5090457      0              62.090263      2066.2465    
    695000   299.63546     -4.4370284      0              58.268335      2032.0566    
    696000   307.41163     -5.4918264      0              58.840874      2061.9712    
    697000   296.78365     -6.0541614      0              56.054398      2069.6754    
    698000   287.18518     -4.5942053      0              55.505663      2062.4782    
    699000   298.55567     -4.551579       0              57.927815      1941.2958    
    700000   304.30899     -4.7641835      0              58.91922       2097.4089    
    701000   296.12348     -4.0338176      0              57.936586      2134.7475    
    702000   305.06032     -3.9748617      0              59.865775      2093.3024    
    703000   297.67238     -4.6730945      0              57.621451      2215.2439    
    704000   303.4413      -3.3376863      0              60.164135      2161.5089    
    705000   299.10551     -5.0917283      0              57.502733      2040.8853    
    706000   289.76816     -3.6658168      0              56.974596      2152.8988    
    707000   308.57198     -6.1098611      0              58.465669      2069.1682    
    708000   297.82568     -5.5269188      0              56.799709      2006.3661    
    709000   297.7913      -3.9389752      0              58.380459      2067.32      
    710000   296.7589      -3.829606       0              58.273774      2121.4735    
    711000   303.43838     -3.8726296      0              59.62858       1982.3845    
    712000   299.21933     -3.0603305      0              59.557949      2187.7631    
    713000   296.29304     -4.8343912      0              57.171497      2034.4151    
    714000   295.39959     -4.8089745      0              57.00994       2047.0434    
    715000   299.0533      -4.6594055      0              57.924128      2184.4116    
    716000   291.23933     -4.4639045      0              56.484384      2087.7576    
    717000   296.00415     -4.9013956      0              57.044036      2072.197     
    718000   303.03064     -3.2624315      0              60.153449      2092.9072    
    719000   304.72004     -3.2774071      0              60.492019      2061.6961    
    720000   287.46813     -3.7413129      0              56.417767      2185.3563    
    721000   299.80073     -4.7216796      0              58.018272      2044.779     
    722000   299.13925     -4.9844925      0              57.617028      2139.3375    
    723000   306.54951     -5.0086867      0              59.143596      2093.8549    
    724000   302.36363     -4.2428009      0              59.033494      2248.6635    
    725000   309.29633     -5.2706488      0              59.456466      2052.6573    
    726000   304.04353     -4.5510601      0              59.076792      2107.171     
    727000   289.71626     -4.7594482      0              55.870104      1963.625     
    728000   303.85618     -4.5238439      0              59.064799      2109.3464    
    729000   298.26636     -4.9275787      0              57.491272      2146.2285    
    730000   293.35599     -5.3342271      0              56.05702       2087.8397    
    731000   305.52517     -3.6437481      0              60.294168      2161.307     
    732000   304.58474     -5.0260024      0              58.715108      2008.5146    
    733000   299.55249     -3.4817108      0              59.206291      2199.4839    
    734000   297.5967      -5.5879969      0              56.690711      2021.8305    
    735000   285.46894     -4.8037351      0              54.93697       2024.8805    
    736000   302.57528     -4.1703944      0              59.150192      2048.3442    
    737000   299.87239     -5.516188       0              57.238758      1976.1235    
    738000   295.78052     -3.7850823      0              58.11355       2157.7349    
    739000   290.0497      -2.7778958      0              57.921436      2191.57      
    740000   299.9409      -6.7509836      0              56.018302      1934.4414    
    741000   301.04007     -5.5417491      0              57.457561      2094.9398    
    742000   301.40686     -4.9508178      0              58.125251      2090.7582    
    743000   300.89043     -5.4006394      0              57.567355      2139.9635    
    744000   298.57695     -5.3320818      0              57.151765      2091.2184    
    745000   302.1198      -3.5378636      0              59.687404      2106.2161    
    746000   294.02494     -5.3259485      0              56.20529       2079.1101    
    747000   295.95811     -4.1177855      0              57.818012      2112.0918    
    748000   296.19633     -4.2601967      0              57.725454      2050.1909    
    749000   302.8746      -5.1089004      0              58.274326      2034.506     
    750000   306.49247     -5.1846567      0              58.95569       2050.5624    
    751000   309.4482      -2.8676676      0              61.89123       2182.2955    
    752000   297.53515     -5.5164134      0              56.749415      2038.9529    
    753000   304.94657     -5.8508604      0              57.965971      2008.9365    
    754000   315.97383     -4.9102197      0              61.21431       2038.4268    
    755000   298.05704     -4.6892268      0              57.685817      2035.4618    
    756000   296.25773     -4.4250567      0              57.573443      2059.704     
    757000   311.77189     -4.3882716      0              60.856911      2178.1094    
    758000   302.50567     -5.6123729      0              57.693647      2117.6026    
    759000   296.50594     -2.8931763      0              59.157266      2135.4461    
    760000   293.15111     -5.6640405      0              55.684329      2060.9033    
    761000   291.19805     -5.1295217      0              55.810127      2059.3177    
    762000   303.1607      -4.3093348      0              59.133765      2139.5817    
    763000   302.65897     -3.7519322      0              59.586168      2236.6057    
    764000   296.90548     -3.2750993      0              58.858955      2077.9992    
    765000   306.2239      -4.6062624      0              59.47788       2041.8508    
    766000   306.64101     -3.8175822      0              60.353849      2151.4998    
    767000   296.0062      -5.0903313      0              56.85553       2064.9663    
    768000   288.25571     -4.9058602      0              55.418039      2015.5822    
    769000   298.65286     -5.5008093      0              56.998923      1973.3811    
    770000   302.51361     -4.9600441      0              58.347637      2045.5259    
    771000   311.91617     -3.7408525      0              61.534523      2152.0256    
    772000   290.23594     -4.3829939      0              56.355313      2035.4461    
    773000   288.07052     -3.9220187      0              56.363126      2116.07      
    774000   306.34656     -5.7706175      0              58.339193      2053.5143    
    775000   302.81896     -5.2861075      0              58.085475      2034.8041    
    776000   284.26697     -5.4296138      0              54.059553      2037.2736    
    777000   301.68423     -5.1312097      0              58.002905      2068.3699    
    778000   294.6466      -5.1141771      0              56.547157      2147.5232    
    779000   293.44136     -4.7894199      0              56.619691      2065.4563    
    780000   288.35509     -4.5034494      0              55.841248      2181.6157    
    781000   306.52129     -3.4845749      0              60.661802      2305.6152    
    782000   300.68577     -3.9883215      0              58.936843      2066.1374    
    783000   307.22732     -4.9685054      0              59.325624      2134.5508    
    784000   295.99948     -5.9999199      0              55.944536      1987.1939    
    785000   293.21412     -5.0820165      0              56.27954       2088.9826    
    786000   301.94319     -6.1151517      0              57.073156      2055.5733    
    787000   297.53393     -5.3341652      0              56.931406      2055.4207    
    788000   300.59374     -4.5359488      0              58.369957      2111.1439    
    789000   295.60891     -5.3097845      0              56.552934      2006.2544    
    790000   289.97385     -4.7782293      0              55.905229      2098.2464    
    791000   303.14416     -5.3478354      0              58.091801      2130.6992    
    792000   303.4322      -4.429578       0              59.070338      2140.065     
    793000   305.45321     -0.93077679     0              62.992081      2300.6367    
    794000   302.77742     -3.1895099      0              60.173379      2209.9884    
    795000   300.14639     -5.4573447      0              57.354943      2019.4891    
    796000   306.5675      -4.3537354      0              59.802312      2076.9879    
    797000   288.42429     -4.9521656      0              55.407013      2048.6342    
    798000   297.43175     -4.7620897      0              57.482099      2098.653     
    799000   292.98608     -4.7048426      0              56.608991      2119.4468    
    800000   285.76309     -2.9844236      0              56.81784       2185.4486    
    801000   288.26598     -3.9897631      0              56.336286      2064.1028    
    802000   294.46247     -5.0648112      0              56.55799       1943.2183    
    803000   294.08453     -3.1933338      0              58.350376      2118.2882    
    804000   297.87011     -5.6730962      0              56.66283       1963.6247    
    805000   299.9099      -4.9152123      0              57.847585      2005.4592    
    806000   295.34472     -6.1859921      0              55.621441      1886.3112    
    807000   302.30095     -3.3993359      0              59.863841      2122.7067    
    808000   295.01897     -3.8673139      0              57.871948      2185.4457    
    809000   314.45067     -4.9474496      0              60.858327      2136.8218    
    810000   298.21651     -4.7347118      0              57.673706      2021.608     
    811000   301.21547     -6.3975244      0              56.638492      2061.9295    
    812000   307.76219     -5.0518689      0              59.354194      2102.9049    
    813000   294.07303     -3.1247705      0              58.416532      1988.1276    
    814000   292.61736     -3.9737339      0              57.262938      2146.055     
    815000   299.57382     -4.3926883      0              58.299777      2098.275     
    816000   307.94538     -5.0792465      0              59.365153      2063.5147    
    817000   306.086       -1.801076       0              62.254206      2215.1128    
    818000   297.39898     -5.6175997      0              56.619732      2133.2154    
    819000   306.68986     -6.1314941      0              58.05016       2058.457     
    820000   290.39678     -5.6692478      0              55.102718      1942.0216    
    821000   302.96775     -5.1449801      0              58.257741      2031.4052    
    822000   295.13967     -5.0319694      0              56.732551      1975.8821    
    823000   304.42142     -4.2806768      0              59.426256      2004.5981    
    824000   299.68315     -3.8373483      0              58.877995      2067.7621    
    825000   301.09758     -3.7374977      0              59.273848      2145.5537    
    826000   304.23248     -4.0105935      0              59.656799      2050.9176    
    827000   296.63178     -4.4489715      0              57.627805      2039.0278    
    828000   297.0256      -4.2154704      0              57.943723      2102.1748    
    829000   291.21942     -5.1675763      0              55.776545      2026.4671    
    830000   297.48176     -5.9665566      0              56.288098      2199.4591    
    831000   311.86434     -4.4533591      0              60.81117       2236.2098    
    832000   305.1843      -3.8251097      0              60.041472      2166.2868    
    833000   296.649       -5.1053961      0              56.974986      2027.8455    
    834000   289.28444     -3.9654213      0              56.573762      2179.0231    
    835000   302.7113      -5.5486199      0              57.800432      2051.6745    
    836000   295.02963     -4.1971102      0              57.544382      2143.2613    
    837000   293.37113     -5.8084605      0              55.585953      2088.0385    
    838000   311.04439     -4.7703465      0              60.322589      2170.9798    
    839000   311.55492     -4.2704358      0              60.92934       2005.8712    
    840000   293.7551      -4.1884064      0              57.286361      2029.6446    
    841000   302.62467     -4.3400726      0              58.990849      2095.8414    
    842000   295.60162     -4.818842       0              57.042352      2116.0039    
    843000   294.23333     -5.6306568      0              55.944191      2178.2552    
    844000   294.69609     -5.3054628      0              56.36623       2105.6171    
    845000   301.75535     -4.8705143      0              58.278484      2098.9121    
    846000   300.57781     -5.1496244      0              57.752948      2044.4839    
[...]
   1814000   293.19367     -3.7860105      0              57.571266      2173.1349    
   1815000   304.16957     -5.0585206      0              58.595706      2126.9224    
   1816000   305.97748     -4.8916468      0              59.140926      2003.5042    
   1817000   309.36059     -4.0298625      0              60.710701      2172.3135    
   1818000   296.166       -5.4035381      0              56.575765      2172.76      
   1819000   305.16422     -3.7316631      0              60.130716      2094.4155    
   1820000   307.20291     -5.9421292      0              58.346892      2139.6542    
   1821000   291.00403     -3.9922492      0              56.906796      2117.2947    
   1822000   299.22878     -3.9440298      0              58.676228      2146.5739    
   1823000   300.33707     -3.3250742      0              59.527118      2147.7242    
   1824000   299.98769     -4.7756818      0              58.003394      2102.2549    
   1825000   304.38972     -4.8696717      0              58.830627      1979.8116    
   1826000   303.90737     -5.1098759      0              58.489481      2100.5615    
   1827000   302.92349     -5.4867843      0              57.906673      2054.893     
   1828000   291.30324     -4.7670858      0              56.194577      2117.9909    
   1829000   292.7516      -5.2504451      0              56.014319      2067.3657    
   1830000   289.27414     -4.8542524      0              55.682776      2121.0079    
   1831000   289.94803     -3.8897469      0              56.788307      2093.4342    
   1832000   296.22736     -3.1885658      0              58.803577      2103.4628    
   1833000   301.47221     -3.0107239      0              60.079022      2130.9347    
   1834000   311.04589     -5.3506478      0              59.742603      2045.3727    
   1835000   302.06712     -5.1165903      0              58.097653      2131.7475    
   1836000   301.88069     -5.5567173      0              57.618512      2051.1715    
   1837000   308.18839     -2.3049373      0              62.190317      2175.4908    
   1838000   296.18807     -4.3394883      0              57.644434      2093.1831    
   1839000   288.19436     -4.3793135      0              55.931746      2053.1329    
   1840000   292.7088      -4.5743149      0              56.681493      2097.8445    
   1841000   301.69456     -4.3579161      0              58.77836       2155.0279    
   1842000   295.62451     -5.574403       0              56.291581      2039.17      
   1843000   303.06303     -6.562062       0              56.860598      2096.0695    
   1844000   305.13494     -6.9776459      0              56.878606      2023.4956    
   1845000   304.36143     -3.3247724      0              60.369605      2209.17      
   1846000   301.08361     -4.9411609      0              58.067261      2079.1533    
   1847000   296.64616     -4.6733734      0              57.406414      2164.7178    
   1848000   295.26607     -6.1211691      0              55.669803      2005.3763    
   1849000   308.64958     -4.0770598      0              60.51471       2110.2613    
   1850000   305.47207     -3.8180513      0              60.108753      2086.4088    
   1851000   305.09856     -3.0662794      0              60.782359      2167.2943    
   1852000   300.7953      -5.2895739      0              57.658513      2007.4378    
   1853000   312.72146     -5.5609767      0              59.882923      2115.9973    
   1854000   302.13958     -5.7764537      0              57.452953      2098.7135    
   1855000   302.43966     -4.0432706      0              59.248935      2150.5972    
   1856000   289.64262     -4.2717833      0              56.342359      2107.447     
   1857000   302.40835     -4.6094638      0              58.67619       2092.1139    
   1858000   307.88631     -4.6763684      0              59.755669      2124.6406    
   1859000   304.61982     -5.2069305      0              58.541521      2059.1049    
   1860000   301.83636     -4.0002514      0              59.1657        2181.936     
   1861000   299.31165     -5.379315       0              57.258284      1997.7261    
   1862000   301.34823     -3.9429276      0              59.120871      2134.4899    
   1863000   302.37238     -5.4644146      0              57.813712      2086.7048    
   1864000   289.09981     -4.6436132      0              55.856932      1981.4179    
   1865000   291.80329     -5.4542825      0              55.612026      2069.2658    
   1866000   293.98462     -6.3733987      0              55.149402      2127.114     
   1867000   302.81065     -6.1653761      0              57.204467      2049.1446    
   1868000   306.28669     -4.5908439      0              59.506437      2033.9352    
   1869000   300.54831     -4.6473922      0              58.249007      1987.5854    
   1870000   301.61395     -4.6139369      0              58.505469      2137.1283    
   1871000   289.47622     -4.4286188      0              56.150699      2119.8462    
   1872000   308.42768     -4.6606491      0              59.884682      2076.9749    
   1873000   288.65843     -5.0496673      0              55.358511      2071.9517    
   1874000   304.61752     -4.2802405      0              59.467729      2031.7299    
   1875000   300.26084     -4.1659781      0              58.670261      2071.1942    
   1876000   294.59563     -2.495877       0              59.154791      2212.4785    
   1877000   292.5752      -4.1936807      0              57.034167      2071.5247    
   1878000   308.90869     -5.909532       0              58.736462      2097.4494    
   1879000   305.21315     -3.7930308      0              60.079589      2096.3746    
   1880000   301.41727     -1.5547356      0              61.523511      2113.7179    
   1881000   305.42372     -3.4293237      0              60.487362      2136.316     
   1882000   309.88198     -2.8480355      0              62.001641      2228.9105    
   1883000   293.08892     -4.7811691      0              56.554188      2123.7066    
   1884000   299.77044     -4.234218       0              58.499394      2091.7726    
   1885000   310.19452     -5.1573696      0              59.757712      2098.2524    
   1886000   306.40097     -5.2219798      0              58.899217      2075.4318    
   1887000   297.41389     -3.8566226      0              58.383828      2123.1973    
   1888000   313.97863     -4.6025081      0              61.104482      2124.4581    
   1889000   302.09109     -5.5869936      0              57.632266      2145.4523    
   1890000   302.83323     -5.6439931      0              57.730575      2108.3271    
   1891000   302.09824     -3.8444724      0              59.376283      2107.6511    
   1892000   299.74438     -4.2297641      0              58.498394      2079.3814    
   1893000   303.06505     -5.4836683      0              57.939413      2163.5043    
   1894000   296.33669     -6.1098658      0              55.905159      2089.4149    
   1895000   294.55787     -5.0258284      0              56.616938      2132.7664    
   1896000   297.07931     -3.8222298      0              58.348203      2129.7856    
   1897000   304.14191     -4.4415112      0              59.206927      2064.2865    
   1898000   300.88343     -4.269638       0              58.696892      2179.1836    
   1899000   294.77054     -2.2884069      0              59.398865      2079.2766    
   1900000   307.38864     -4.4073265      0              59.920562      2169.286     
   1901000   294.12097     -5.1566456      0              56.394689      2021.7065    
   1902000   301.61079     -4.69157        0              58.427176      2181.2556    
   1903000   294.94493     -4.9189569      0              56.80481       2188.8067    
   1904000   301.50817     -4.4507535      0              58.646518      2124.6348    
   1905000   300.08023     -5.683153       0              57.11529       2068.5874    
   1906000   297.03422     -6.2224326      0              55.938565      2026.016     
   1907000   302.08303     -3.9503466      0              59.267225      2181.7228    
   1908000   289.25163     -5.3352243      0              55.197094      2075.9728    
   1909000   297.29951     -3.0018952      0              59.214619      2036.6693    
   1910000   309.54101     -3.8109179      0              60.967402      2106.7616    
   1911000   296.78047     -5.877637       0              56.230257      2055.8965    
   1912000   299.07721     -4.9265981      0              57.66194       2136.7733    
   1913000   293.50286     -3.0337505      0              58.388231      2161.852     
   1914000   281.81337     -5.4780952      0              53.497601      2096.0443    
   1915000   305.8934      -4.7109469      0              59.30403       2007.1142    
   1916000   295.78443     -6.2009325      0              55.698518      2101.3614    
   1917000   296.13431     -5.0506419      0              56.922029      2147.7774    
   1918000   301.87886     -2.9265062      0              60.24834       2132.4549    
   1919000   297.93361     -4.6438279      0              57.705387      2129.8631    
   1920000   302.42738     -4.0857048      0              59.203932      2110.6223    
   1921000   299.28872     -3.1209268      0              59.511874      2169.9877    
   1922000   303.57839     -4.7200662      0              58.810444      2087.8724    
   1923000   299.73946     -2.6785777      0              60.04855       2099.952     
   1924000   292.47683     -3.8040174      0              57.403244      2169.8339    
   1925000   300.95519     -3.7861441      0              59.195403      2114.295     
   1926000   302.88428     -4.3479533      0              59.037299      2142.8577    
   1927000   294.41934     -3.7718763      0              57.8419        2115.5854    
   1928000   312.11515     -5.5185132      0              59.798503      2217.8725    
   1929000   293.55926     -5.0821388      0              56.351646      2211.1333    
   1930000   296.56354     -3.8582857      0              58.20421       2128.1928    
   1931000   299.47715     -5.2184716      0              57.453763      2043.1113    
   1932000   303.6083      -5.6625959      0              57.874174      1986.3791    
   1933000   301.44676     -5.9059583      0              57.178461      2090.0902    
   1934000   293.29199     -4.3858524      0              56.992         2098.0537    
   1935000   301.38348     -4.8135031      0              58.257673      2060.7936    
   1936000   294.49355     -5.1152802      0              56.514025      2145.5617    
   1937000   295.60628     -4.8966382      0              56.965531      1943.1069    
   1938000   300.61193     -3.7365613      0              59.173152      2156.2704    
   1939000   301.19927     -2.1447258      0              60.887901      2185.7825    
   1940000   291.0769      -4.2208248      0              56.693472      2119.48      
   1941000   288.72592     -4.7031806      0              55.71912       2100.3484    
   1942000   310.82405     -4.3785764      0              60.668248      2128.9073    
   1943000   295.83929     -5.5876486      0              56.323283      2141.574     
   1944000   293.44547     -4.7864899      0              56.623481      2069.2108    
   1945000   312.1731      -3.6507083      0              61.678436      2137.6008    
   1946000   299.76185     -4.7694332      0              57.962381      2237.5419    
   1947000   290.82456     -5.5387386      0              55.32275       2043.2001    
   1948000   303.592       -3.4140666      0              60.119292      2123.7861    
   1949000   303.49742     -6.0479359      0              57.465629      1998.2262    
   1950000   300.96984     -4.7411038      0              58.24351       2123.3947    
   1951000   296.54481     -5.5464432      0              56.512135      2043.6756    
   1952000   285.06681     -4.2622208      0              55.394331      2096.2464    
   1953000   298.50062     -5.4596755      0              57.008199      2173.2343    
   1954000   298.70368     -4.4776678      0              58.0327        2138.1115    
   1955000   297.83028     -5.2197353      0              57.107854      2078.3361    
   1956000   299.65571     -4.090873       0              58.61873       2127.2016    
   1957000   303.13547     -3.9286169      0              59.509202      2109.7476    
   1958000   294.40757     -4.8179416      0              56.79337       2158.8963    
   1959000   305.22145     -4.4720293      0              59.402327      2126.2962    
   1960000   290.64164     -3.8167428      0              57.006465      2138.2138    
   1961000   310.18401     -4.1486749      0              60.764208      2137.8079    
   1962000   296.41491     -4.5035845      0              57.527809      1996.6214    
   1963000   300.56521     -4.7633622      0              58.136572      2023.8261    
   1964000   299.21048     -3.4270498      0              59.189377      2110.5265    
   1965000   298.97737     -3.45908        0              59.108564      2093.7119    
   1966000   305.09235     -5.1843354      0              58.663005      2029.2206    
   1967000   298.1437      -4.7335387      0              57.659643      2027.2841    
   1968000   301.66587     -4.8040978      0              58.326174      2004.2457    
   1969000   299.58992     -5.8364822      0              56.859353      2170.969     
   1970000   306.74805     -4.987524       0              59.206308      2133.2892    
   1971000   301.01507     -4.1659121      0              58.828167      2118.6716    
   1972000   296.8171      -4.4657491      0              57.649811      2069.1096    
   1973000   298.3358      -4.1627817      0              58.2706        2093.1333    
   1974000   294.12471     -4.9939         0              56.558218      2159.9737    
   1975000   298.79883     -4.8914649      0              57.638816      2000.2264    
   1976000   305.08729     -4.8192735      0              59.027007      2072.6964    
   1977000   299.7194      -5.0582232      0              57.664708      2023.9044    
   1978000   308.40446     -3.6990035      0              60.841468      2167.4653    
   1979000   301.71165     -6.0584644      0              57.081388      2080.4054    
   1980000   296.30878     -4.4000163      0              57.609167      2012.1038    
   1981000   297.90986     -4.0791198      0              58.265125      2164.1812    
   1982000   305.19057     -5.2138813      0              58.654012      2135.1337    
   1983000   305.05208     -4.7687258      0              59.070186      2088.2599    
   1984000   301.39273     -4.307466       0              58.765646      2153.3729    
   1985000   306.61007     -3.4024268      0              60.76253       2207.3051    
   1986000   298.70415     -3.9372562      0              58.573212      2037.4592    
   1987000   299.01745     -5.0638068      0              57.512225      2025.9474    
   1988000   298.65656     -5.4927911      0              57.007716      2053.7926    
   1989000   306.5125      -4.8742256      0              59.270311      2091.3872    
   1990000   291.46219     -4.3759508      0              56.618975      2011.1192    
   1991000   294.51927     -3.6830456      0              57.951642      2143.7727    
   1992000   304.32443     -3.8116112      0              59.875024      2109.5351    
   1993000   298.72764     -4.6521053      0              57.863277      2006.6672    
   1994000   287.73304     -3.6568177      0              56.557701      2032.5345    
   1995000   291.28395     -4.5567277      0              56.400898      2100.0228    
   1996000   301.32559     -4.3477119      0              58.711351      2002.4453    
   1997000   293.32175     -3.7722648      0              57.611816      2020.705     
   1998000   307.96642     -3.830198       0              60.618604      2093.5953    
   1999000   306.5492      -4.9879701      0              59.164247      2093.1801    
   2000000   303.99184     -3.926136       0              59.690898      2073.0302    
   2000101   297.69427     -4.4264434      0              57.872684      2033.4129    
Loop time of 11566.3 on 16 procs for 2000000 steps with 1620 atoms

Performance: 7.470 ns/day, 3.213 hours/ns, 172.915 timesteps/s
99.7% CPU use with 16 MPI tasks x 1 OpenMP threads

MPI task timing breakdown:
Section |  min time  |  avg time  |  max time  |%varavg| %total
---------------------------------------------------------------
Pair    | 9233       | 9925.4     | 10500      | 444.3 | 85.81
Bond    | 0.98527    | 1.0214     | 1.0793     |   2.7 |  0.01
Neigh   | 14.682     | 15.064     | 15.412     |   7.1 |  0.13
Comm    | 1006.7     | 1581.4     | 2274.3     |1113.8 | 13.67
Output  | 0.98795    | 0.9884     | 0.98988    |   0.0 |  0.01
Modify  | 24.176     | 24.726     | 25.099     |   4.5 |  0.21
Other   |            | 17.71      |            |       |  0.15

Nlocal:         101.25 ave         107 max          97 min
Histogram: 2 2 1 0 3 3 2 1 1 1
Nghost:        5054.25 ave        5106 max        5015 min
Histogram: 3 1 2 4 1 1 0 1 1 2
Neighs:        51681.4 ave       56251 max       46321 min
Histogram: 2 2 1 1 3 0 0 1 3 3

Total # of neighbors = 826903
Ave neighs/atom = 510.43395
Ave special neighs/atom = 0
Neighbor list builds = 10425
Dangerous builds = 0
comm_modify cutoff 27.58
compute myRDF all rdf 1129 cutoff 22.58
fix 2 all ave/time 1 1 1 c_myRDF[*] file ljg2_nvt_45rdf.rdf mode vector
run 0 pre yes post no
Generated 0 of 0 mixed pair_coeff terms from geometric mixing rule
WARNING: Compute rdf cutoff less than neighbor cutoff - forcing a needless neighbor list build (src/compute_rdf.cpp:179)
Neighbor list info ...
  update every 1 steps, delay 0 steps, check yes
  max neighbors/atom: 200000, page size: 2000000000
  master list distance cutoff = 27
  ghost atom cutoff = 27.58
  binsize = 13.5, bins = 4 5 4
  4 neighbor lists, perpetual/occasional/extra = 3 1 0
  (1) pair lj/cut, perpetual
      attributes: half, newton on
      pair build: half/bin/newton
      stencil: half/bin/3d
      bin: standard
  (2) pair gauss/cut, perpetual, copy from (1)
      attributes: half, newton on
      pair build: copy
      stencil: none
      bin: none
  (3) pair gauss/cut, perpetual, copy from (1)
      attributes: half, newton on
      pair build: copy
      stencil: none
      bin: none
  (4) compute rdf, occasional
      attributes: half, newton on, cut 24.58
      pair build: half/bin/newton
      stencil: half/bin/3d
      bin: standard
Per MPI rank memory allocation (min/avg/max) = 3.053e+04 | 3.053e+04 | 3.053e+04 Mbytes
   Step          Temp          E_pair         E_mol          TotEng         Press     
   2000101   297.69427     -4.4264434      0              57.872684      2033.4129    
Loop time of 4.21113e-06 on 16 procs for 0 steps with 1620 atoms

uncompute myRDF
unfix 2
write_data ljg2_nvt_45/ca_md.data nocoeff nofix
System init for write_data ...
Generated 0 of 0 mixed pair_coeff terms from geometric mixing rule
Neighbor list info ...
  update every 1 steps, delay 0 steps, check yes
  max neighbors/atom: 200000, page size: 2000000000
  master list distance cutoff = 27
  ghost atom cutoff = 27.58
  binsize = 13.5, bins = 4 5 4
  3 neighbor lists, perpetual/occasional/extra = 3 0 0
  (1) pair lj/cut, perpetual
      attributes: half, newton on
      pair build: half/bin/newton
      stencil: half/bin/3d
      bin: standard
  (2) pair gauss/cut, perpetual, copy from (1)
      attributes: half, newton on
      pair build: copy
      stencil: none
      bin: none
  (3) pair gauss/cut, perpetual, copy from (1)
      attributes: half, newton on
      pair build: copy
      stencil: none
      bin: none
Total wall time: 3:12:47
