ITEM: TIMESTEP
0
ITEM: NUMBER OF ATOMS
1620
ITEM: BOX BOUNDS pp pp pp
0 52.7945
0 54.7943
0 45.1953
ITEM: ATOMS id type xu yu zu
1 1 25.41843997 4.08107946 17.57916389
2 1 20.73240015 0.43725851 14.48554560
3 1 21.71807346 4.20820224 17.65509199
4 1 3.23894258 1.71067805 20.95028131
5 1 20.87283352 1.88985541 6.83488522
6 1 12.10313912 3.10464504 17.75271384
7 1 3.82812920 12.63775735 15.85541515
8 1 7.02325234 1.76382852 15.47939025
9 1 14.41342644 5.03943177 12.18013335
10 1 6.47471748 4.18299686 2.63307818
11 1 5.12423417 9.15557959 5.88849564
12 1 23.91010110 10.43557444 10.20464679
13 1 7.67104085 11.89584253 3.85561104
14 1 4.23464685 0.02410949 9.26368064
15 1 10.75793526 3.83395717 11.28526641
16 1 16.47980317 2.71889317 0.62821467
17 1 7.46144668 0.78410643 21.40268627
18 1 10.48762742 3.89971033 2.61500006
19 1 9.12922494 11.09474986 9.94522576
20 1 2.34090813 8.46462346 12.06940487
21 1 12.87182704 1.26520039 13.15409207
22 1 16.39058047 2.95122100 16.59481025
23 1 13.47474024 9.77365929 2.20281892
24 1 5.68491176 0.67396989 2.30450835
25 1 17.58004055 13.31775462 13.76468057
26 1 23.43019910 7.91065309 1.08287939
27 1 8.17258860 6.14846840 13.36967365
28 1 18.72409737 12.24816988 17.66955449
29 1 1.13085819 8.36599372 5.72398475
30 1 16.18415398 8.11065229 17.31070381
31 1 9.44968756 12.87337284 0.66934239
32 1 16.38741280 2.03780002 11.39554294
33 1 21.93400297 10.42625940 4.85668694
34 1 4.74041815 8.65037614 17.45126119
35 1 6.26089975 9.46187972 13.28741820
36 1 16.22111013 6.68490460 21.67205026
37 1 14.41712206 5.26025280 2.76550041
38 1 4.89932960 1.91122518 12.19188413
39 1 18.75788585 9.50516722 12.48023014
40 1 21.84583616 12.24488222 12.89421909
41 1 22.61452407 6.33915257 5.36920164
42 1 2.21736900 12.99118059 1.24784223
43 1 12.39878832 8.80325224 13.15002449
44 1 24.62177096 0.63177828 12.67682970
45 1 13.68961385 0.74684631 2.08169552
46 1 23.29821285 7.77421528 16.69333601
47 1 4.09843703 7.91065309 2.00215179
48 1 15.34260964 8.80215635 10.16487492
49 1 1.89796227 12.13255391 19.82717811
50 1 7.78402108 5.35449900 19.70741056
51 1 10.11331442 0.48273778 15.63260232
52 1 8.37479153 0.66081926 11.05296257
53 1 19.68601316 3.33258933 10.01347067
54 1 4.55458151 11.08927043 9.48152199
55 1 13.23030170 3.98025795 21.20292304
56 1 16.87734576 7.29147750 4.86301428
57 1 20.77833136 1.14958441 19.63690590
58 1 3.37092882 3.92491571 9.22119706
59 1 11.38618981 11.89145899 14.76937209
60 1 19.73141643 11.87282892 7.26785619
61 1 25.06102120 1.85588294 0.66030333
62 1 13.40293971 6.21148185 16.32092674
63 1 24.49189649 4.09806570 21.05377855
64 1 0.00475151 12.81748266 6.18542876
65 1 4.85973372 4.15231205 17.18415697
66 1 20.26992033 5.70025103 21.06959691
67 1 18.27217645 11.10516078 1.83944871
68 1 17.25165876 5.96819516 9.61620398
69 1 0.83415310 7.36818952 17.50865922
70 1 15.42919263 2.93313888 5.55269456
71 1 9.46288618 8.47941792 19.22698453
72 1 12.16649252 2.41423686 8.04024387
73 1 2.70466223 5.22956799 22.36579811
74 1 19.99961249 7.95065293 7.36683390
75 1 0.86846952 12.32652573 13.61237241
76 1 6.59086538 7.13038226 8.84200849
77 1 3.14813604 3.40656163 0.01175078
78 1 20.45364519 0.66794252 3.01226675
79 1 18.86241896 9.40051011 22.00920719
80 1 11.85500497 6.26737203 7.67009436
81 1 12.18233087 9.83393302 7.65472796
82 1 25.36986903 9.30681185 4.86391819
83 1 15.96400091 12.57803156 3.84386027
84 1 2.12497863 4.93696643 13.59429429
85 1 19.16281966 6.09641382 15.54266367
86 1 8.69261442 1.96218388 7.24390268
87 1 15.14040671 10.72817600 14.58813893
88 1 25.22046060 13.41200081 1.66228313
89 1 20.59777417 5.22792416 2.01887405
90 1 22.60818873 6.33476902 12.99048508
91 1 26.33389660 1.54026777 9.23385174
92 1 23.20740631 13.25035763 19.50538757
93 1 19.40409053 13.14405668 10.76100093
94 1 8.92913378 9.59448193 15.94444989
95 1 14.25873856 12.42241575 9.01691430
96 1 8.44817589 13.25474117 17.21714954
97 1 22.54747506 10.43119089 22.05214273
98 1 0.04276355 3.01752210 18.08851492
99 1 26.13697311 8.26243250 21.67024244
100 1 20.73081632 13.40104195 0.89848256
101 1 26.02135316 5.31121150 8.63049449
102 1 14.01852358 6.07668787 29.27570753
103 1 10.52247179 8.96434748 42.29647346
104 1 19.65908796 10.43557444 29.34485634
105 1 17.30603710 6.47120683 32.47101524
106 1 21.36171059 5.64984027 38.87925682
107 1 11.39674871 10.07448000 36.49565670
108 1 9.53785437 11.89913019 40.35895095
109 1 17.59693479 7.38134015 38.81462755
110 1 1.25281349 13.64432864 29.72178514
111 1 22.38539594 10.45804010 35.87693305
112 1 4.41889965 1.26355656 39.96936746
113 1 0.57334827 10.78625795 24.67889357
114 1 4.20508192 2.12382707 34.24447881
115 1 18.05096749 12.23447130 41.01880233
116 1 1.61551170 0.87177731 30.85392740
117 1 16.36999061 10.34954738 44.01615462
118 1 2.59960118 4.78518622 26.23722751
119 1 0.79350133 7.44380566 38.24426286
120 1 16.49458563 0.93753047 22.87560110
121 1 2.86198984 4.51998181 37.32408655
122 1 10.75265581 5.02573320 23.52822123
123 1 20.44836574 1.27177570 38.87790097
124 1 20.55501063 4.31285935 42.66300734
125 1 6.25192469 3.88765559 43.55425866
126 1 25.01192232 7.86407794 38.12630313
127 1 17.15082127 3.26190468 34.98613368
128 1 10.03359473 2.76546832 43.43403916
129 1 9.33459554 5.16162306 39.52374180
130 1 21.68850855 13.23446728 42.19071646
131 1 2.02202935 10.89420273 34.64355331
132 1 2.70096662 6.03230449 32.52796132
133 1 12.60679866 7.55284631 33.26780838
134 1 25.65971084 0.72383270 29.17447006
135 1 6.67586453 8.31941857 27.57500839
136 1 5.17438894 8.83503293 30.84036881
137 1 15.20534394 1.93259496 27.21028232
138 1 4.58361849 10.37530070 25.01062707
139 1 7.21384048 12.95611223 23.60866886
140 1 5.76357556 2.78081073 28.76771236
141 1 25.41052079 5.97805813 34.23905537
142 1 20.38078878 12.84981129 26.90928162
143 1 1.22958391 2.13588181 42.47318708
144 1 7.71222056 11.41639240 34.53056506
145 1 6.70542945 12.99885179 27.68302516
146 1 5.96472261 8.13695355 36.04822323
147 1 21.38494017 11.99228050 32.69744369
148 1 12.22931798 12.55008647 28.24163906
149 1 3.52456082 6.42243990 41.91050560
150 1 19.24412320 7.60544884 44.48437793
151 1 12.99378234 12.04871863 39.52735743
152 1 9.15403835 3.60875260 30.65958761
153 1 19.97955058 3.89751856 24.88995562
154 1 3.65073967 0.49808019 26.57167273
155 1 26.10107285 4.56052959 40.07467251
156 1 23.50727907 9.00325143 32.12391533
157 1 9.26596270 10.52214943 28.52501360
158 1 22.61610791 9.53694792 26.93459099
159 1 18.08950748 3.77861493 40.00055222
160 1 4.60156862 12.80926351 31.69139631
161 1 24.95965576 6.33148136 43.16151150
162 1 13.80101024 9.67064601 30.51586656
163 1 8.14830313 6.16600258 33.65106452
164 1 10.25955518 10.29639691 31.75150606
165 1 22.43449483 3.12930247 27.03808822
166 1 13.84588557 13.11885131 44.56844119
167 1 2.26963555 12.76542807 38.05534651
168 1 25.72992752 10.95721617 27.71195015
169 1 22.49045700 3.49094485 33.37718100
170 1 17.25324260 12.38022414 32.16775477
171 1 23.00203570 1.26300861 43.01417482
172 1 14.67159155 6.50463135 36.08844705
173 1 22.36163842 9.06242928 41.73831150
174 1 23.60811656 5.96709927 25.44224218
175 1 9.98924734 6.52654907 28.37858082
176 1 13.39607643 1.48930907 36.88162457
177 1 22.91334095 1.94684148 23.21230608
178 1 13.38498958 4.62025538 39.89976670
179 1 16.28499147 11.15392771 35.34227265
180 1 12.51757595 13.52980856 32.14651298
181 1 10.88886562 4.31833878 35.17640590
182 1 7.99203141 7.83558490 44.24936237
183 1 4.86342934 9.73859094 41.94756574
184 1 24.01780189 2.76820804 37.26397680
185 1 19.40356258 7.55777780 35.51853432
186 1 17.89733550 6.76106868 27.41908460
187 1 20.77780342 4.63285806 30.44988142
188 1 21.88490408 13.41254875 38.42639992
189 1 11.36454407 1.77752709 26.84555625
190 1 2.03997948 8.48051381 26.71403792
191 1 11.05569624 0.95068110 40.07060493
192 1 18.05941461 9.79722084 25.45354101
193 1 13.77936450 9.54242735 23.63849776
194 1 6.33375616 4.16765446 25.31072386
195 1 26.08629039 12.68816811 34.52966115
196 1 15.08655632 3.18848032 31.56304166
197 1 10.93585273 0.49150487 23.63759385
198 1 21.46782753 0.18520473 35.54745931
199 1 9.66244939 10.13256196 23.54494349
200 1 5.56665208 13.50186346 37.57582437
201 1 25.60850017 13.41090493 38.25284997
202 1 5.22137605 11.35392690 45.16230743
203 1 11.84814169 6.13203011 45.04570356
204 1 15.06649441 14.09747750 19.67125433
205 1 25.62169879 21.11827116 21.11434025
206 1 8.06383193 14.11720345 6.85115553
207 1 23.59544589 24.92921473 4.04271959
208 1 19.71716192 24.21579294 14.79648927
209 1 0.44030613 23.63442542 21.83972482
210 1 15.49254602 17.54897046 11.54333157
211 1 2.95121255 26.53742743 2.36145443
212 1 11.00342969 14.57583174 4.25875312
213 1 26.36451741 22.58511457 8.89262723
214 1 0.29248153 18.37746028 14.40193430
215 1 8.00311826 16.54842654 22.07925991
216 1 9.48400398 23.34291974 12.56384145
217 1 9.33829116 16.53144031 1.10818876
218 1 22.20589464 21.00429902 6.24237484
219 1 3.30440775 17.24650592 16.40227828
220 1 25.61272373 16.00486709 16.64588094
221 1 10.83079168 14.40432558 11.37791677
222 1 18.22677318 21.77799453 10.35243542
223 1 22.17527383 21.11553145 15.99552058
224 1 16.82349537 16.33966026 2.63533794
225 1 21.39180345 18.59992513 3.66127125
226 1 3.89465027 21.31991419 20.96293600
227 1 16.45762949 18.79773256 6.79646921
228 1 12.82114432 26.21578489 16.73762740
229 1 0.81409119 26.28701748 6.92617973
230 1 4.04933815 22.36484149 14.83309746
231 1 21.34428841 27.12701410 17.06574528
232 1 7.93923691 22.90292151 22.13891771
233 1 3.15024782 22.41963579 8.00544349
234 1 6.92822224 21.07717544 18.93863851
235 1 24.79388103 23.86236971 18.82791003
236 1 9.06956715 21.72922761 9.29170173
237 1 20.17858585 16.16924999 8.31819496
238 1 12.61260605 23.80538363 5.40445397
239 1 20.19917570 15.99445617 12.61671995
240 1 19.32384289 19.62951003 13.47678651
241 1 11.04619324 14.00103954 19.49860828
242 1 4.06200883 20.28375397 11.63327022
243 1 17.51246359 20.42457533 16.55051886
244 1 23.88317591 18.13526947 19.91666480
245 1 5.58354632 14.21090171 11.77201979
246 1 26.28690949 25.77797843 7.22898824
247 1 3.09903715 22.95607198 4.24338672
248 1 5.68491176 13.99172450 19.41770869
249 1 21.66158335 14.66843411 5.09351031
250 1 15.75335085 24.98346108 9.86658594
251 1 12.77362927 19.87718027 9.22029315
252 1 8.65988183 17.29856051 10.89884660
253 1 4.94314903 17.44266952 20.11687998
254 1 15.26025022 22.15881492 1.74544249
255 1 4.13011373 25.34619935 11.84749594
256 1 1.24806198 17.08869834 20.10060968
257 1 1.01312645 15.16322664 10.84913177
258 1 7.48626010 19.04649868 5.12243530
259 1 24.37944421 18.05253008 12.93037533
260 1 25.14496446 16.00979857 4.36586598
261 1 10.86669193 27.10180872 8.50033202
262 1 12.65114603 25.93578602 11.99302481
263 1 20.02653769 23.24648177 18.66656281
264 1 15.60077475 25.51113019 2.31580717
265 1 12.37661463 25.18072056 20.01473861
266 1 6.67111302 24.83058499 5.58568713
267 1 25.45170051 26.51605766 15.63757380
268 1 14.96882459 17.63718928 17.60628107
269 1 11.07628610 18.19499526 20.23981120
270 1 21.56813708 14.44487337 16.28567440
271 1 14.95668185 20.80320394 19.30833607
272 1 18.53773278 23.99990340 4.67861746
273 1 0.49204474 22.13086983 15.85857882
274 1 12.72083478 17.68266855 2.45862432
275 1 10.14499112 23.43826182 16.71005827
276 1 21.80729617 26.29304486 9.26503650
277 1 21.14894875 19.89745416 9.37576498
278 1 1.15355983 24.11771114 13.31453538
279 1 24.70624216 26.26729153 21.81848303
280 1 9.45866262 27.07769923 3.54466738
281 1 4.89299426 16.30404396 6.13616588
282 1 16.54949191 24.40757299 20.02920110
283 1 1.23961486 18.53800758 8.03256067
284 1 5.76727118 15.41034893 1.41506484
285 1 19.18604924 24.24099832 0.92424388
286 1 4.51023413 19.79992031 2.57658405
287 1 7.80830655 17.86622946 14.53526043
288 1 6.50164267 22.21525305 0.11976754
289 1 20.23982746 15.60377281 20.49561660
290 1 12.89558457 15.45363643 7.58105962
291 1 11.54668509 17.41088882 15.95755652
292 1 4.57886699 25.79880027 18.39493905
293 1 13.22766198 20.78566976 14.51673036
294 1 17.18460975 18.43389841 21.88853574
295 1 10.78908402 23.36976895 1.36625392
296 1 8.74012947 26.66619404 20.46985528
297 1 6.09776475 27.20263023 9.74455863
298 1 0.46353571 17.32869737 2.82425430
299 1 20.10256177 17.47828581 17.29804912
300 1 23.45026101 23.87552034 12.11098454
301 1 0.79350133 25.98784060 17.80740015
302 1 11.25948301 20.78402593 3.82533019
303 1 24.47764198 14.43555834 8.37016956
304 1 0.48306967 13.82679366 22.58544727
305 1 0.92020814 19.41745609 22.89774679
306 1 15.56962600 24.00647872 25.56110582
307 1 4.54877412 26.74509783 22.87966867
308 1 20.78466670 17.53965543 42.57306869
309 1 19.46533215 26.30016811 24.73538769
310 1 20.36706221 16.73582305 36.68728478
311 1 15.06015907 20.38895903 37.75253800
312 1 8.73590591 15.29692473 31.46903544
313 1 20.82795819 23.37524838 42.71407803
314 1 18.24049975 22.51388198 39.70452300
315 1 4.95476382 17.68486032 24.35393936
316 1 9.98555173 21.21361325 33.59005087
317 1 17.70621941 25.96263523 33.85579923
318 1 23.69575543 18.82512971 27.75398178
319 1 20.25249815 21.69306337 26.39947864
320 1 3.10062098 13.89638242 25.23931529
321 1 9.42487414 14.90240577 42.98163421
322 1 13.13421571 16.69417938 34.73801149
323 1 15.14568616 15.59281395 30.66139543
324 1 5.73929010 24.13414944 25.51997810
325 1 5.42569076 19.18677209 40.90762189
326 1 0.67101809 15.74185445 35.31515547
327 1 6.74608121 18.37636439 34.31543543
328 1 24.78226624 16.00651092 35.73140418
329 1 12.08096543 18.74348620 43.03767638
330 1 4.71824447 18.54348701 28.26016914
331 1 2.06109728 19.58403076 37.92518404
332 1 16.56902588 18.42567926 44.86266259
333 1 17.17827441 14.26350423 25.46619569
334 1 8.17997983 18.36485759 37.83388954
335 1 11.01187681 14.34186008 25.23389185
336 1 2.64130883 21.35443460 43.34003294
337 1 0.51580226 18.52814460 32.45971641
338 1 7.79774765 25.04263893 43.71831760
339 1 15.41968961 21.55881733 34.25396982
340 1 24.31397903 21.60539249 37.60700913
341 1 25.47334625 27.08263072 36.08573533
342 1 15.97297597 23.86072588 29.15503608
343 1 19.77523586 25.34181581 30.63427825
344 1 1.51520215 25.65688303 44.12100772
345 1 15.74543168 25.41085663 40.82129887
346 1 3.18667602 27.28372580 41.14986870
347 1 22.10980865 18.00321521 33.62349539
348 1 4.61371135 16.47938572 32.39418323
349 1 7.99044757 19.44375735 24.65403615
350 1 13.25353128 26.04701845 30.60625716
351 1 3.14232864 22.79278497 34.43655883
352 1 23.13982935 18.93745802 39.50566368
353 1 7.48626010 25.13469335 29.68924452
354 1 17.68985311 18.11170792 32.22831648
355 1 16.45921332 14.72980373 43.82678632
356 1 12.20239279 19.93909783 30.84082077
357 1 23.88423180 14.56925643 23.39760681
358 1 23.15144414 23.36428952 32.91980457
359 1 16.51887110 14.97911779 37.34442444
360 1 8.14883107 26.57852316 24.26852024
361 1 18.20143182 18.11389969 39.06365365
362 1 12.50807294 23.98620482 38.50684755
363 1 24.71152161 22.03497980 29.51976215
364 1 24.52885264 16.17911296 41.18512103
365 1 25.41896791 20.38402754 34.16945461
366 1 0.06124162 23.84702730 26.44377003
367 1 8.52789558 16.93637019 27.65907165
368 1 20.03973631 21.74566590 30.30706427
369 1 0.67418577 16.26240030 41.26828038
370 1 21.70751457 16.75938460 24.89583100
371 1 9.16301342 26.50619468 34.51836233
372 1 17.26485739 20.92703906 24.58081976
373 1 14.56758639 22.10073296 42.20608286
374 1 4.01502173 15.38459561 40.75169810
375 1 11.05516830 20.40430143 37.75615362
376 1 1.80346012 24.31771034 38.18098944
377 1 24.34882340 23.04922229 44.02157806
378 1 14.85267668 20.49635586 27.55964199
379 1 8.92121461 22.63278561 40.58989893
380 1 22.79824894 24.99661172 38.82276270
381 1 24.44015789 26.68975559 27.08328352
382 1 13.17592336 19.14129282 23.39941462
383 1 12.38875737 24.45688786 34.09578627
384 1 22.87321712 15.90788118 30.63201848
385 1 6.20440964 23.92099961 37.44159433
386 1 18.32233123 14.95720007 29.35796297
387 1 7.85793338 20.05800146 30.52671343
388 1 20.83534943 23.03387989 36.40888173
389 1 3.10378866 20.66347847 30.78749031
390 1 9.94489997 15.02021352 38.05263479
391 1 20.23718774 18.31115917 28.53088898
392 1 14.62830006 17.29856051 40.62560322
393 1 0.11878762 16.95335642 26.82205469
394 1 3.90204150 17.47006667 44.16213544
395 1 7.87905118 19.44594913 43.51313093
396 1 1.41225287 24.83770825 29.81262769
397 1 25.40682518 26.39386637 42.87045377
398 1 20.02337002 27.34564336 43.21529391
399 1 13.53650980 27.08263072 25.45128124
400 1 12.71238766 27.14728799 42.62549524
401 1 2.32718156 27.25632865 26.11113262
402 1 23.03001679 27.11331553 31.98245404
403 1 21.67161431 20.51662975 22.68442498
404 1 12.79897063 15.29528090 22.67945349
405 1 3.94902860 28.60262460 6.59580208
406 1 2.08168714 33.86890477 12.89602690
407 1 7.76079150 28.68317222 6.52710523
408 1 15.15043767 30.05796121 0.01853007
409 1 6.01223766 27.76262798 15.41747269
410 1 7.97355334 39.26778715 15.85270343
411 1 13.29101537 37.31272653 22.18908449
412 1 6.08984558 30.43330216 11.82896587
413 1 1.76914369 33.30452348 7.21542964
414 1 9.66984062 33.11822286 2.11016856
415 1 24.84614759 34.32260158 4.93397090
416 1 18.45114980 29.04645843 3.32004674
417 1 15.15202150 31.87000871 19.14698885
418 1 5.63845260 31.01850529 1.36535001
419 1 2.18252463 38.83655601 2.11559199
420 1 3.49394001 30.81631432 17.12766284
421 1 14.91814186 30.38508318 8.66258315
422 1 22.05279059 35.68807553 16.63774579
423 1 8.26128336 33.54233075 16.26624042
424 1 5.18653168 33.48096113 5.84556010
425 1 17.59535096 37.90614880 6.87872466
426 1 0.48306967 30.15768683 15.50289181
427 1 18.03882476 39.86011354 13.46322792
428 1 21.10618521 34.92259916 20.16297919
429 1 18.25317043 33.22342792 9.85121954
430 1 5.29264862 36.57081171 3.20751044
431 1 10.87513905 38.58778989 1.37936056
432 1 7.83523174 36.09245747 10.68371697
433 1 11.77053377 32.69192321 8.37830471
434 1 13.35436878 40.41791951 6.31830294
435 1 8.12190588 32.37576010 7.52094987
436 1 16.47610756 33.50726239 6.23695140
437 1 0.34580397 29.25084117 4.47026712
438 1 14.31206101 29.46070334 12.64835666
439 1 21.34692813 32.23767846 12.28317863
440 1 23.58647082 39.65299108 2.64392505
441 1 19.64694523 30.78288980 7.29361751
442 1 5.66062629 33.53411160 18.75378974
443 1 24.26963165 32.60918382 20.89062352
444 1 2.63180582 37.40368507 9.39791068
445 1 6.75083272 34.38671091 0.11072849
446 1 12.98903083 30.43385011 3.07960774
447 1 7.02642000 29.23988231 18.73480771
448 1 12.41937818 34.96095517 19.61837582
449 1 21.71332196 27.51714952 20.71436185
450 1 17.59059945 37.91655971 0.63228225
451 1 22.48306577 31.56042091 16.36115055
452 1 12.93940400 35.87711587 2.21321384
453 1 25.75157326 38.91600775 19.28664232
454 1 2.99661582 32.63274536 21.55273466
455 1 21.77456358 40.70668547 20.12139951
456 1 12.64745042 36.56861993 7.50829519
457 1 17.99553327 31.55548943 14.33142963
458 1 0.26238866 40.06614010 12.30713214
459 1 9.12552933 37.59765689 20.38443616
460 1 17.59482301 27.96591483 18.72576865
461 1 7.86004516 31.98617262 21.62278738
462 1 14.33212291 27.88865487 5.60150548
463 1 1.49091668 34.46671059 3.69290796
464 1 9.73900141 27.60317657 15.48978517
465 1 25.95377620 30.21302908 6.53750014
466 1 17.87516181 36.01300573 14.61344830
467 1 19.93361937 34.58671010 1.75990498
468 1 10.35880885 30.95439596 12.29718918
469 1 15.84468534 39.43655360 3.51935801
470 1 6.16639760 38.46285888 6.22429672
471 1 14.09982711 28.60372049 20.05948195
472 1 16.33092269 39.53025185 9.89460703
473 1 19.94259443 39.79764803 9.85664298
474 1 12.25518728 37.30889093 11.74399871
475 1 20.24510691 35.67328107 11.55598626
476 1 3.37145677 36.82560520 18.47538669
477 1 20.28259101 38.25025700 3.47551857
478 1 16.07909292 38.94066518 21.61194051
479 1 4.49017223 34.21356092 9.74094301
480 1 6.24822907 35.11383127 13.68016536
481 1 22.72592047 28.52043315 4.28813006
482 1 24.36941326 39.30833493 7.43236709
483 1 13.17222775 37.72697144 16.67570984
484 1 1.31405511 39.44422480 16.50261184
485 1 8.88900996 37.62176638 4.51094289
486 1 16.98240682 30.54563048 22.08513530
487 1 12.24621222 30.72152018 15.83733703
488 1 20.01703467 28.59166574 12.02827714
489 1 22.66467885 29.93522198 0.63047444
490 1 1.35734660 37.29628824 5.87358119
491 1 13.54759665 33.53520749 11.86421820
492 1 18.42528050 37.16806958 18.78859012
493 1 6.76508723 40.52750811 12.68496485
494 1 22.72433664 35.15054345 8.05425441
495 1 20.29578963 39.37408809 16.43301108
496 1 2.31345499 28.54673441 20.66509897
497 1 23.50199962 31.03384769 8.94143815
498 1 26.29905223 30.99439579 11.59304640
499 1 24.63602548 40.61408310 13.05195069
500 1 17.66081614 27.84481943 14.81095176
501 1 24.59167810 36.83218052 21.78458655
502 1 18.36562272 27.41249240 8.44383790
503 1 21.17851368 28.31440658 39.04060405
504 1 15.33733019 38.02395654 40.40414625
505 1 24.76537200 31.44535288 36.29770129
506 1 13.14160694 39.29080076 42.95361312
507 1 10.52141590 30.52645247 29.11164859
508 1 2.93537420 28.75330893 35.87015375
509 1 6.14844747 28.41194044 27.63963767
510 1 5.01758928 30.60919187 24.45834050
511 1 19.57672854 31.33357251 32.02945716
512 1 8.84994203 38.23601048 27.01594253
513 1 1.22800007 35.95437583 28.30536444
514 1 15.05276784 36.68533179 37.14240145
515 1 4.10530032 30.65960262 42.29963713
516 1 15.46456494 31.75877628 28.16164338
517 1 23.41700047 40.91928735 35.95014943
518 1 7.38595055 32.69027938 33.55570244
519 1 17.74739912 38.98450062 30.60806497
520 1 5.00280682 34.97136609 38.93936657
521 1 26.00287508 29.79604445 31.08125976
522 1 19.04244820 36.36149748 28.33609724
523 1 23.38162816 39.75381259 30.59676615
524 1 10.87197138 38.49299575 33.62259148
525 1 5.47531759 39.86668885 24.92204428
526 1 14.84106189 36.60697594 32.81901905
527 1 7.99255936 30.92480703 37.17900964
528 1 20.16063571 39.27710218 35.31470351
529 1 3.72993143 34.91438002 43.13394237
530 1 18.32919451 34.28588940 38.21624177
531 1 25.91682005 34.26068402 40.10404946
532 1 25.30123618 39.82340135 27.61071268
533 1 5.60149645 38.27820209 41.37720106
534 1 19.20875088 32.16754176 27.64099353
535 1 14.61087787 32.19987039 41.45855260
536 1 6.46046297 27.97084632 37.18443308
537 1 3.52614465 36.28697723 23.28913809
538 1 22.99622831 35.06122874 38.15974765
539 1 2.70994168 28.39550215 31.82291464
540 1 24.57003236 38.22012014 41.04953513
541 1 2.20786599 32.02891218 29.90121048
542 1 17.31237244 28.18399615 28.13588206
543 1 13.74293629 40.19326288 26.24671852
544 1 10.97492066 39.31107465 24.01994609
545 1 5.69547066 38.24642140 32.93110339
546 1 11.04936091 35.98560858 38.85304355
547 1 16.08120470 35.67766462 23.71939735
548 1 10.12492921 34.53520346 35.11403638
549 1 11.50392155 29.12152662 36.63395432
550 1 21.08084385 39.04532229 38.84445644
551 1 9.91797477 34.91711973 29.77149997
552 1 5.98584041 31.61521521 30.07295262
553 1 22.18530479 39.35710186 23.50155600
554 1 15.35422443 33.08863394 36.25340990
555 1 2.59009817 39.19655456 38.04043206
556 1 11.88193017 37.81792997 29.22237707
557 1 4.40939664 34.68369601 32.18221727
558 1 10.98072805 30.46672669 40.67441414
559 1 17.27436040 28.20098238 37.49176112
560 1 8.71584400 28.18837969 44.81339972
561 1 19.24306731 31.78946109 41.34466044
562 1 24.73105558 35.85355432 34.85687513
563 1 17.28491930 40.82997264 38.60220964
564 1 0.56120554 33.76205589 41.05541052
565 1 23.63768149 30.76206796 41.65334434
566 1 25.70669794 35.94615669 43.75402188
567 1 9.33353965 34.78835313 25.60449331
568 1 8.63031691 38.15053137 43.73278009
569 1 21.77350769 29.46837454 26.52602548
570 1 16.38160541 34.21575269 30.61845989
571 1 20.44414218 38.24148991 42.55318276
572 1 17.10858567 39.98833220 27.05390658
573 1 6.99051975 32.38891073 40.64955673
574 1 6.64788344 38.37135240 37.71186223
575 1 19.66225563 33.66287820 23.70267508
576 1 5.31587820 36.27382660 26.54139188
577 1 16.66141625 39.42943034 35.02771336
578 1 13.08247710 32.60699204 31.74789044
579 1 2.57162009 32.53192385 37.20251120
580 1 25.36722930 34.74287386 24.96859544
581 1 14.03066632 32.17630885 24.65719982
582 1 22.73700731 33.55986492 44.28054713
583 1 15.36108772 36.23273088 27.67895758
584 1 24.47500225 33.40424911 30.83901295
585 1 22.40123430 33.72808342 27.12893078
586 1 10.21362397 30.05138589 33.11504826
587 1 17.02992187 33.91274021 44.33794516
588 1 19.69868384 35.90780068 31.85952283
589 1 9.53468670 33.14781179 43.24873843
590 1 7.64094798 28.22016039 40.51397083
591 1 2.94962872 40.69024718 41.97468292
592 1 2.05792961 31.90124146 33.53852822
593 1 20.96680773 29.04481460 35.33097382
594 1 3.93424614 40.99928703 31.12690702
595 1 9.30450268 29.76864730 25.86933777
596 1 0.23863114 36.62067452 33.43955052
597 1 16.15511700 30.05193383 33.74416684
598 1 0.46564749 33.24096209 24.61110062
599 1 11.24417261 28.58015894 22.84848392
600 1 20.66271141 49.54171840 19.71916134
601 1 6.32742082 50.85458983 0.88266421
602 1 19.67123070 44.01461736 9.56513329
603 1 18.18664936 54.49128752 5.62048751
604 1 21.11040877 51.73403834 5.55585823
605 1 24.66770218 44.58447808 3.54918691
606 1 15.08180481 54.42224670 19.81587929
607 1 5.14640786 45.00036682 19.18404899
608 1 21.22814050 45.89241802 0.44562566
609 1 23.58488698 44.15763048 9.15430802
610 1 22.18108123 47.12802949 17.27273975
611 1 5.80897884 43.87708367 9.89008750
612 1 12.33332314 51.94116080 5.72714842
613 1 0.37167328 49.15322682 13.54186774
614 1 18.04674394 46.93405767 22.29574540
615 1 3.28856941 42.60092442 12.53988794
616 1 0.14571282 53.28142938 1.52443747
617 1 9.18307533 51.75047663 11.61609601
618 1 13.23716498 46.90118108 13.98975316
619 1 22.79032976 52.59211708 11.97811036
620 1 2.50773875 53.15211483 4.81058773
621 1 10.44116826 48.92692636 1.25597739
622 1 0.01689424 41.51161374 5.22593254
623 1 5.47478965 47.36474086 8.58168356
624 1 17.86354702 50.38993417 5.89211126
625 1 22.89961438 52.21403641 1.77029990
626 1 3.77005524 50.84582274 21.98706150
627 1 14.24448405 41.37517593 16.65717977
628 1 17.01777913 49.50938976 19.02179786
629 1 15.36267155 52.61567863 3.31507525
630 1 8.22802283 47.47542535 19.16551892
631 1 3.70353418 42.62010243 21.45963235
632 1 21.29043801 53.52855167 8.60292535
633 1 4.80113183 54.39813721 18.31855900
634 1 3.62539831 43.97680929 3.97899421
635 1 16.37843773 51.11157510 13.26120493
636 1 10.44433593 53.27759378 18.34838789
637 1 9.56161189 47.67268483 13.14821668
638 1 14.50845654 43.10174432 11.05025085
639 1 0.55962170 54.46827391 10.56485333
640 1 7.77821368 49.98007280 22.06434546
641 1 23.71000995 47.84145127 7.81517128
642 1 8.50149834 46.05022561 2.91057732
643 1 24.58745454 54.05238518 7.32254251
644 1 5.69441477 49.16254185 12.34057667
645 1 18.23099674 45.69406266 17.80559234
646 1 18.75419023 53.95375544 11.81676314
647 1 21.78934604 49.18336368 12.64383713
648 1 9.92589394 43.08530603 18.58295150
649 1 12.74089668 52.56636376 14.89049549
650 1 14.31734045 53.90005702 9.03634828
651 1 13.15110995 48.65240691 19.47827039
652 1 20.31637949 49.63267694 9.40966146
653 1 8.77233412 42.46613044 7.82014276
654 1 4.10318854 50.72034379 8.32407035
655 1 18.91943702 45.55707691 5.60150548
656 1 17.24954699 43.49461945 2.55127468
657 1 14.27721664 49.31596589 4.30891990
658 1 12.59623975 44.16365786 3.14559288
659 1 3.43269839 53.68526337 12.71886133
660 1 7.89700131 44.06502812 21.57442841
661 1 24.60646056 43.95543952 16.91208126
662 1 2.57953927 45.86940442 13.98839730
663 1 11.76525432 52.55759667 0.80402439
664 1 6.66583357 42.32804881 1.99220882
665 1 4.93259013 48.60418793 19.23195601
666 1 19.37452561 52.93732117 17.80152476
667 1 7.69004687 51.69349056 6.56145365
668 1 24.81183117 47.45460352 0.54098774
669 1 24.57372797 49.93294970 4.30530428
670 1 1.24278253 47.11707063 5.11249234
671 1 13.31741262 42.97352566 20.68227319
672 1 3.40524525 49.89075809 16.02308971
673 1 16.09862688 44.72694326 8.25356569
674 1 24.36730148 46.50008681 12.97873430
675 1 0.05807395 44.59817666 19.66447503
676 1 4.57358753 48.21679223 2.99916011
677 1 8.84730231 47.23926192 6.81454733
678 1 20.99531676 42.97188183 13.93551880
679 1 12.51652006 46.43433365 6.64596886
680 1 19.20558321 50.85568572 2.04689514
681 1 9.38369443 54.64635539 3.47461466
682 1 12.38347792 46.51214155 10.12374720
683 1 0.99517632 47.24912489 9.78433050
684 1 16.84514111 50.34061930 9.69936333
685 1 11.27004192 41.85407811 13.20516275
686 1 7.33368400 51.25677999 17.89462708
687 1 24.13817334 54.46717803 20.30624829
688 1 22.15098836 47.24090574 4.10644496
689 1 17.57687289 42.75873200 22.47245902
690 1 4.61635108 41.45846327 16.65627586
691 1 3.53089616 41.65024332 7.24480659
692 1 1.75541713 53.62553758 16.03664830
693 1 9.79074002 41.63161325 3.88543994
694 1 1.58647472 44.10886356 0.47319479
695 1 25.95694387 54.75977959 17.31386748
696 1 14.42556918 41.13736867 0.76334862
697 1 2.95121255 48.71322859 30.27859124
698 1 16.31772406 52.56800759 28.63348231
699 1 7.24974074 48.30994254 30.38344433
700 1 6.32478110 50.22883892 42.17535005
701 1 16.73744033 44.78831288 31.22136519
702 1 6.92980607 44.50228663 26.71177816
703 1 9.87415533 46.64036022 36.07262870
704 1 14.09771533 42.71325274 35.81998697
705 1 26.05461369 46.04529412 34.69914353
706 1 4.06306472 49.16911716 26.31270366
707 1 23.62078724 51.32088932 30.54117593
708 1 10.21943137 41.27709413 41.66871074
709 1 12.10208323 51.82718866 36.58875902
710 1 4.59892889 45.93625346 23.39715486
711 1 20.53494872 43.37407199 29.78008708
712 1 1.73007577 45.22776316 33.35187164
713 1 15.53794930 47.91268386 43.66498714
714 1 23.94494547 52.57458291 26.13056660
715 1 3.38307156 46.63104519 44.16032763
716 1 5.18336401 46.36858049 35.29120196
717 1 14.02221920 47.02720797 27.28123894
718 1 20.26305705 50.24527721 28.64658895
719 1 2.15929505 50.83322005 33.51321886
720 1 15.07388564 43.80256342 25.33558127
721 1 25.70564205 51.32472492 43.59041490
722 1 2.19572325 48.26336738 35.76710847
723 1 13.12893626 46.87652365 23.33478534
724 1 9.07854222 43.57735885 44.30585650
725 1 12.29953467 50.53623495 27.40914164
726 1 21.00323593 46.99104374 33.05629437
727 1 14.02538687 41.78174964 29.64088555
728 1 16.10812990 41.69188698 42.47770661