region box block 0 52.794504272175 0 54.794296100667 0 45.195295323908
units metal
dimension 3
boundary p p p
atom_style full
create_box 1 box
Created orthogonal box = (0 0 0) to (52.794504 54.794296 45.195295)
  2 by 4 by 2 MPI processor grid
create_atoms 1 random 1620 46 box
Created 1620 atoms
  using lattice units in orthogonal box = (0 0 0) to (52.794504 54.794296 45.195295)
  create_atoms CPU = 0.005 seconds
mass 1 40.078
pair_style hybrid/overlay lj/cut 25 gauss/cut 25 gauss/cut 25
pair_coeff 1 1 lj/cut 0.009507177838705264 3.7584971993521488
pair_coeff 1 1 gauss/cut 1 -0.0597999248039827 5.991246456844763 0.601172550524922
pair_coeff 1 1 gauss/cut 2 0.0726183915985775 5.919659952808235 0.9307156951487607
run 1
WARNING: No fixes with time integration, atoms won't move (src/verlet.cpp:60)
Generated 0 of 0 mixed pair_coeff terms from geometric mixing rule
Neighbor list info ...
  update every 1 steps, delay 10 steps, check yes
  max neighbors/atom: 2000, page size: 100000
  master list distance cutoff = 27
  ghost atom cutoff = 27
  binsize = 13.5, bins = 4 5 4
  3 neighbor lists, perpetual/occasional/extra = 3 0 0
  (1) pair lj/cut, perpetual
      attributes: half, newton on
      pair build: half/bin/newton
      stencil: half/bin/3d
      bin: standard
  (2) pair gauss/cut, perpetual, copy from (1)
      attributes: half, newton on
      pair build: copy
      stencil: none
      bin: none
  (3) pair gauss/cut, perpetual, copy from (1)
      attributes: half, newton on
      pair build: copy
      stencil: none
      bin: none
Per MPI rank memory allocation (min/avg/max) = 6.987 | 6.997 | 7.002 Mbytes
   Step          Temp          E_pair         E_mol          TotEng         Press     
         0   0              2.8266405e+18  0              2.8266405e+18  1.3855545e+20
         1   0              2.8266405e+18  0              2.8266405e+18  1.3855545e+20
Loop time of 0.00870023 on 16 procs for 1 steps with 1620 atoms

Performance: 9.931 ns/day, 2.417 hours/ns, 114.939 timesteps/s
95.4% CPU use with 16 MPI tasks x 1 OpenMP threads

MPI task timing breakdown:
Section |  min time  |  avg time  |  max time  |%varavg| %total
---------------------------------------------------------------
Pair    | 0.0047311  | 0.0063756  | 0.0083218  |   1.3 | 73.28
Bond    | 5.61e-07   | 6.1387e-07 | 7.22e-07   |   0.0 |  0.01
Neigh   | 0          | 0          | 0          |   0.0 |  0.00
Comm    | 0.00023106 | 0.0021854  | 0.0038376  |   2.2 | 25.12
Output  | 9.4368e-05 | 9.5297e-05 | 9.6418e-05 |   0.0 |  1.10
Modify  | 1.017e-06  | 1.1444e-06 | 1.375e-06  |   0.0 |  0.01
Other   |            | 4.221e-05  |            |       |  0.49

Nlocal:         101.25 ave         130 max          81 min
Histogram: 2 2 1 4 1 1 3 1 0 1
Nghost:        5064.94 ave        5184 max        4892 min
Histogram: 1 0 1 3 3 1 1 0 1 5
Neighs:        51652.6 ave       68219 max       38851 min
Histogram: 3 1 0 4 1 3 0 3 0 1

Total # of neighbors = 826441
Ave neighs/atom = 510.14877
Ave special neighs/atom = 0
Neighbor list builds = 0
Dangerous builds = 0
thermo 1000
neighbor 2.0 bin
neigh_modify every 1 delay 0 check yes one 200000 page 2000000000
minimize 0.0 1.0e-8 100 1000
Generated 0 of 0 mixed pair_coeff terms from geometric mixing rule
Neighbor list info ...
  update every 1 steps, delay 0 steps, check yes
  max neighbors/atom: 200000, page size: 2000000000
  master list distance cutoff = 27
  ghost atom cutoff = 27
  binsize = 13.5, bins = 4 5 4
  3 neighbor lists, perpetual/occasional/extra = 3 0 0
  (1) pair lj/cut, perpetual
      attributes: half, newton on
      pair build: half/bin/newton
      stencil: half/bin/3d
      bin: standard
  (2) pair gauss/cut, perpetual, copy from (1)
      attributes: half, newton on
      pair build: copy
      stencil: none
      bin: none
  (3) pair gauss/cut, perpetual, copy from (1)
      attributes: half, newton on
      pair build: copy
      stencil: none
      bin: none
Per MPI rank memory allocation (min/avg/max) = 2.29e+04 | 2.29e+04 | 2.29e+04 Mbytes
   Step          Temp          E_pair         E_mol          TotEng         Press     
         1   0              2.8266405e+18  0              2.8266405e+18  1.3855545e+20
       101   0             -45.642335      0             -45.642335      744.72894    
Loop time of 1.21783 on 16 procs for 100 steps with 1620 atoms

99.7% CPU use with 16 MPI tasks x 1 OpenMP threads

Minimization stats:
  Stopping criterion = max iterations
  Energy initial, next-to-last, final = 
    2.82664046641229e+18  -45.2778605563139  -45.6423354806115
  Force two-norm initial, final = 5.7792138e+20 0.59370142
  Force max component initial, final = 3.6918576e+20 0.049577655
  Final line search alpha, max atom move = 1 0.049577655
  Iterations, force evaluations = 100 152

MPI task timing breakdown:
Section |  min time  |  avg time  |  max time  |%varavg| %total
---------------------------------------------------------------
Pair    | 0.71199    | 0.91444    | 1.1691     |  13.1 | 75.09
Bond    | 7.2896e-05 | 7.5976e-05 | 8.0789e-05 |   0.0 |  0.01
Neigh   | 0.0072678  | 0.008556   | 0.010211   |   0.9 |  0.70
Comm    | 0.03417    | 0.29029    | 0.4939     |  23.4 | 23.84
Output  | 3.8301e-05 | 3.9291e-05 | 4.2035e-05 |   0.0 |  0.00
Modify  | 0          | 0          | 0          |   0.0 |  0.00
Other   |            | 0.004429   |            |       |  0.36

Nlocal:         101.25 ave         119 max          86 min
Histogram: 1 1 2 3 3 1 2 2 0 1
Nghost:        5072.62 ave        5177 max        4961 min
Histogram: 1 2 2 1 1 3 0 3 1 2
Neighs:        51662.8 ave       64368 max       42223 min
Histogram: 2 2 1 2 2 3 2 0 1 1

Total # of neighbors = 826605
Ave neighs/atom = 510.25
Ave special neighs/atom = 0
Neighbor list builds = 6
Dangerous builds = 0
timestep 0.0005
fix 1 all nvt temp 300.0 300.0 $(100.0*dt)
fix 1 all nvt temp 300.0 300.0 0.050000000000000002776
fix removeMomentum all momentum 1 linear 1 1 1
dump 1 all custom 1000 ljg2_nvt_46/ca.traj id mol type mass x y z
dump_modify 1 sort id
run 2000000
Generated 0 of 0 mixed pair_coeff terms from geometric mixing rule
Per MPI rank memory allocation (min/avg/max) = 2.289e+04 | 2.289e+04 | 2.289e+04 Mbytes
   Step          Temp          E_pair         E_mol          TotEng         Press     
       101   0             -45.642335      0             -45.642335      744.72894    
      1000   207.07812     -40.080195      0              3.2554936      1241.3199    
      2000   297.25588     -11.095593      0              51.111791      1733.3205    
      3000   303.75227     -7.9041733      0              55.662726      1957.7102    
      4000   298.84998     -9.4825084      0              53.058478      1913.874     
      5000   301.93403     -6.075625       0              57.110766      2106.8913    
      6000   295.29721     -4.5900567      0              57.207433      2060.5813    
      7000   295.87979     -4.7056959      0              57.21371       1984.038     
      8000   296.60874     -5.3738413      0              56.698114      1976.5366    
      9000   303.5725      -3.7339861      0              59.795291      2138.4547    
     10000   302.96629     -6.1179181      0              57.284497      2038.814     
     11000   316.4958      -6.0777312      0              60.156034      2047.3652    
     12000   301.97531     -3.4646196      0              59.73041       2100.5285    
     13000   299.50967     -4.9948581      0              57.684182      2089.0129    
     14000   298.55716     -5.1437817      0              57.335925      2057.9609    
     15000   303.24018     -4.7362939      0              58.723437      1935.2308    
     16000   286.82983     -3.8476017      0              56.1779        2170.4097    
     17000   297.73517     -5.347799       0              56.959887      2089.6487    
     18000   303.27009     -5.3991785      0              58.066813      2154.485     
     19000   291.04514     -3.2641806      0              57.643469      2003.6096    
     20000   292.48147     -4.6895705      0              56.518662      2188.2282    
     21000   295.00191     -4.3640229      0              57.371669      2121.2956    
     22000   291.37873     -5.17588        0              55.80158       2038.4375    
     23000   301.9729      -4.9679492      0              58.226575      1873.7106    
     24000   291.53772     -4.0796209      0              56.931113      1978.8387    
     25000   307.83525     -4.172923       0              60.24843       2111.0225    
     26000   297.95074     -3.2562905      0              59.096508      2126.5464    
     27000   299.93695     -4.6975329      0              58.070926      2112.5766    
     28000   301.1566      -2.9794247      0              60.044272      2071.9792    
     29000   296.61319     -4.8411374      0              57.23175       2085.0853    
     30000   306.53572     -4.65198        0              59.497416      2077.5482    
     31000   295.59456     -3.5820531      0              58.277663      2072.5036    
     32000   291.54287     -3.1408251      0              57.870985      1985.8192    
     33000   306.27594     -4.1653177      0              59.929715      2060.0681    
     34000   284.85165     -5.1823749      0              54.429149      2025.1643    
     35000   295.71288     -4.1599079      0              57.72457       2108.7999    
     36000   302.8667      -4.3598004      0              59.021772      2079.3191    
     37000   303.77469     -3.6505352      0              59.921055      2127.634     
     38000   294.10252     -4.659088       0              56.888386      2119.7346    
     39000   299.96282     -5.6977682      0              57.076104      2112.4209    
     40000   298.9784      -4.3813536      0              58.186506      2199.8191    
     41000   293.37044     -4.7711131      0              56.623158      2049.4275    
     42000   313.32793     -4.2543414      0              61.316475      2099.727     
     43000   300.67726     -4.3766533      0              58.546731      2124.0835    
     44000   296.19072     -5.0971847      0              56.887291      2108.6259    
     45000   296.05355     -3.806034       0              58.149735      2010.9149    
     46000   295.3339      -4.3449886      0              57.460179      2040.7191    
     47000   309.99385     -3.75121        0              61.121877      2093.481     
     48000   302.65363     -4.2864917      0              59.050491      2141.7146    
     49000   298.26545     -3.4379509      0              58.980709      2069.2028    
     50000   298.13792     -4.7067167      0              57.685254      2109.9055    
     51000   294.55108     -2.8142247      0              58.82712       2163.3455    
     52000   299.27568     -4.9876219      0              57.642451      2040.2091    
     53000   287.30378     -5.3137803      0              54.810906      2009.3087    
     54000   299.51664     -4.3608596      0              58.319639      2038.8746    
     55000   312.38938     -4.7247026      0              60.649703      2074.3366    
     56000   299.70769     -4.0401773      0              58.680302      2176.0728    
     57000   291.14702     -2.9907539      0              57.938217      2194.4976    
     58000   299.95175     -4.6094182      0              58.162136      2054.002     
     59000   304.95332     -4.6944967      0              59.123748      2050.8292    
     60000   298.3342      -5.7911037      0              56.641943      1989.1396    
     61000   310.13315     -6.3732724      0              58.528966      2105.4577    
     62000   299.81398     -2.4850938      0              60.257631      2113.7254    
     63000   289.73452     -4.0496267      0              56.583746      2176.4601    
     64000   296.59136     -5.6332277      0              56.43509       2164.3227    
     65000   307.32726     -4.7454001      0              59.569643      2155.5101    
     66000   300.42268     -1.7875863      0              61.08252       2242.7704    
     67000   294.7904      -3.2940017      0              58.397426      2068.7467    
     68000   299.52605     -4.0090189      0              58.67345       2109.9608    
     69000   294.71804     -4.1024182      0              57.573867      2170.7394    
     70000   302.33638     -4.2560104      0              59.014581      2130.7645    
     71000   299.85389     -4.1741601      0              58.576915      2094.7335    
     72000   303.89388     -4.3121989      0              59.284335      2088.5633    
     73000   294.99561     -4.0662811      0              57.668091      1955.7599    
     74000   301.04034     -3.7254711      0              59.273895      2074.6915    
     75000   293.18095     -4.3359067      0              57.018708      2128.8936    
     76000   300.043       -3.7394748      0              59.051175      2219.4849    
     77000   299.37052     -5.0390332      0              57.610887      2026.0776    
     78000   310.03094     -2.5809117      0              62.299938      2103.723     
     79000   313.68741     -2.890857       0              62.755189      2244.1992    
     80000   301.04284     -5.0749981      0              57.924892      2100.1275    
     81000   306.96473     -4.9447159      0              59.29446       1973.9394    
     82000   310.35497     -5.8963221      0              59.052337      1982.8438    
     83000   300.28395     -2.8973988      0              59.943676      2187.9361    
     84000   298.72343     -5.2532887      0              57.261212      2028.9574    
     85000   301.93421     -5.2004633      0              57.985966      2091.2333    
     86000   304.00569     -3.3815108      0              60.238422      2146.5506    
     87000   286.15251     -6.1543355      0              53.729423      1952.2956    
     88000   306.80576     -5.7806667      0              58.425242      2114.0036    
     89000   306.88        -6.2595883      0              57.961857      2028.9716    
     90000   296.8763      -6.2265778      0              55.901371      1971.9656    
     91000   305.21947     -5.4319445      0              58.441997      2052.769     
     92000   297.1458      -4.8674132      0              57.316934      2018.637     
     93000   311.40101     -4.0614276      0              61.106138      2045.8472    
     94000   287.05809     -4.9182756      0              55.154995      2034.9685    
     95000   308.80093     -4.1204661      0              60.502977      2100.9735    
     96000   300.85029     -4.9513549      0              58.008239      2163.8353    
     97000   295.4065      -5.9119555      0              55.908406      2032.5227    
     98000   307.79197     -3.5791615      0              60.833133      2153.68      
     99000   297.22099     -2.3303818      0              59.8697        2265.4449    
    100000   301.05899     -3.1465978      0              59.856672      2099.5088    
    101000   295.1009      -4.9568367      0              56.799569      2052.2133    
    102000   307.54729     -3.8624635      0              60.498627      2105.2317    
    103000   309.6877      -4.6719573      0              60.13706       2086.1071    
    104000   292.81072     -3.8355791      0              57.441557      2218.1164    
    105000   294.65105     -4.493938       0              57.168329      2089.4324    
    106000   290.22403     -3.3962255      0              57.339588      2023.0685    
    107000   297.46706     -6.1103596      0              56.141219      2032.184     
    108000   300.82864     -5.1997617      0              57.755302      2125.987     
    109000   299.95488     -2.7029419      0              60.069267      2170.8331    
    110000   306.477       -5.4268428      0              58.710266      2001.0556    
    111000   291.55631     -4.431999       0              56.582625      2042.7777    
    112000   308.15433     -4.2583423      0              60.229784      2022.5029    
    113000   302.77266     -4.4262832      0              58.93561       2106.9489    
    114000   310.06471     -5.9445103      0              58.943406      2126.075     
    115000   288.03861     -4.6086432      0              55.669822      2064.3969    
    116000   304.82753     -4.6651479      0              59.126772      2095.2119    
    117000   308.39587     -4.6582757      0              59.880399      2070.5779    
    118000   294.41897     -3.8869969      0              57.726702      2181.5478    
    119000   304.11364     -3.9474372      0              59.695086      2192.1193    
    120000   289.92702     -4.3300214      0              56.343637      2065.5609    
    121000   293.39113     -5.6778618      0              55.720738      2050.1803    
    122000   303.18607     -5.1505476      0              58.29786       1994.9285    
    123000   302.18106     -5.1919859      0              58.046102      2100.132     
    124000   304.71032     -3.9822243      0              59.785166      2082.7142    
    125000   288.78948     -4.8921502      0              55.543452      1938.54      
    126000   295.48395     -5.26101        0              56.575558      2126.5718    
    127000   305.00624     -5.7399347      0              58.089384      2098.92      
    128000   295.605       -5.1220395      0              56.739863      2047.0718    
    129000   313.67374     -4.1642431      0              61.478942      2070.6373    
    130000   307.29902     -4.3723562      0              59.936778      2208.8198    
    131000   301.3398      -4.3065298      0              58.755505      2070.0176    
    132000   295.40124     -4.5768436      0              57.242416      2059.2327    
    133000   325.23866     -6.6327402      0              61.430661      2015.4174    
    134000   297.29726     -5.1719796      0              57.044064      2065.2624    
    135000   297.27677     -3.7716175      0              58.440138      2201.7209    
    136000   309.91779     -5.235725       0              59.621444      2008.4297    
    137000   297.55553     -3.8964476      0              58.373646      2053.3272    
    138000   305.39467     -4.8076004      0              59.103006      1987.8733    
    139000   306.51816     -5.0333998      0              59.112323      2049.7091    
    140000   298.43853     -4.4662536      0              57.988626      2058.4404    
    141000   282.15765     -3.2623782      0              55.785367      2063.9467    
    142000   300.90858     -5.4414823      0              57.53031       2155.1745    
    143000   300.33171     -4.8689981      0              57.982071      2053.4269    
    144000   308.4881      -4.6597934      0              59.898183      2022.668     
    145000   308.22646     -3.4593377      0              61.043883      2086.0396    
    146000   290.95601     -4.9742632      0              55.914734      2018.1495    
    147000   288.62722     -4.8015891      0              55.600056      2093.1215    
    148000   316.43212     -5.7144403      0              60.505999      2003.4645    
    149000   299.84363     -5.4540963      0              57.294831      2047.8113    
    150000   293.88639     -4.2496287      0              57.252614      2130.397     
    151000   294.99417     -4.6993351      0              57.034736      2092.823     
    152000   304.66442     -4.9181876      0              58.839599      2088.3438    
    153000   301.22753     -4.2701301      0              58.768409      2133.7616    
    154000   295.2066      -2.4271117      0              59.351416      2195.161     
    155000   300.67933     -4.7033622      0              58.220455      2038.5488    
    156000   296.35658     -4.6575746      0              57.361612      2159.6005    
    157000   304.74128     -4.8669601      0              58.906911      2035.8636    
    158000   294.03391     -4.0389519      0              57.494164      2133.3303    
    159000   298.68039     -3.3478987      0              59.157596      2256.2584    
    160000   298.01968     -5.3622103      0              57.005017      2060.5095    
    161000   305.66221     -5.0832066      0              58.883388      2083.3998    
    162000   303.68928     -5.7061453      0              57.84757       1985.9477    
    163000   301.5207      -3.8872145      0              59.212679      2114.4814    
    164000   287.913       -6.0905035      0              54.161677      2061.8796    
    165000   300.16606     -4.5143714      0              58.302033      2087.0614    
    166000   300.38669     -3.4838385      0              59.378737      2222.1399    
    167000   302.96128     -6.3381172      0              57.063248      2018.6889    
    168000   307.0532      -4.8238546      0              59.433836      2127.1037    
    169000   293.85353     -2.4149349      0              59.080432      2211.0049    
    170000   301.12854     -2.9753472      0              60.042478      2189.6967    
    171000   289.74452     -4.6326131      0              56.002853      2034.4727    
    172000   304.46322     -4.1050098      0              59.610669      2000.0091    
    173000   301.10114     -4.9835553      0              58.028536      2132.0411    
    174000   302.13568     -3.4596708      0              59.76892       2182.0061    
    175000   296.31181     -6.0130064      0              55.99681       2021.1525    
    176000   307.82412     -5.0535288      0              59.365494      2035.4513    
    177000   294.77325     -4.8033455      0              56.884494      2112.7287    
    178000   304.7029      -5.1851162      0              58.580723      2095.9234    
    179000   302.49093     -5.48883        0              57.814105      1994.5145    
    180000   292.90408     -4.0475655      0              57.249108      2159.3571    
    181000   296.24356     -4.8226003      0              57.172933      2062.3267    
    182000   288.24685     -6.3878984      0              53.934147      2091.7377    
    183000   301.47646     -5.3316668      0              57.758968      2137.0567    
    184000   299.26695     -4.2423543      0              58.38589       1976.0877    
    185000   300.72225     -5.4565859      0              57.476213      2111.8567    
    186000   299.21599     -3.637038       0              58.980544      2095.6011    
    187000   301.38993     -4.9903943      0              58.082131      2105.6107    
    188000   300.02695     -6.8245531      0              55.96274       2006.5886    
    189000   294.76226     -5.6320572      0              56.053483      2107.1015    
    190000   294.57071     -5.5297201      0              56.115732      2059.1565    
    191000   304.09992     -5.4899861      0              58.149665      2092.6346    
    192000   295.99703     -3.2794875      0              58.664455      2165.9506    
    193000   305.80565     -4.2167958      0              59.779817      2078.5932    
    194000   295.75862     -5.3001943      0              56.593856      2085.6545    
    195000   302.20505     -3.2118755      0              60.031232      2295.7846    
    196000   297.61226     -3.6685204      0              58.613446      2063.3048    
    197000   311.76601     -5.4037266      0              59.840224      2118.5352    
    198000   302.75098     -4.7878549      0              58.5695        2093.0764    
    199000   295.35098     -4.8590143      0              56.949728      2114.2287    
    200000   298.41578     -3.8975589      0              58.55256       2135.4922    
    201000   285.44367     -4.1323092      0              55.603108      2057.2011    
    202000   302.87306     -5.3085995      0              58.074304      2117.5289    
    203000   293.86181     -4.7364627      0              56.760637      2085.5385    
    204000   304.79351     -4.5584529      0              59.226348      2094.2257    
    205000   299.12044     -6.4106039      0              56.18698       2057.3385    
    206000   291.77685     -4.5673107      0              56.493466      1995.7954    
    207000   301.38865     -4.6802772      0              58.39198       2008.378     
    208000   302.27406     -5.1514804      0              58.10607       2128.9219    
    209000   312.16672     -4.5782594      0              60.749548      1977.0777    
    210000   298.33406     -4.7816039      0              57.651414      2116.6671    
    211000   301.59329     -6.0683403      0              57.046744      2137.0743    
    212000   313.10414     -3.5672322      0              61.956752      2106.3799    
    213000   292.11122     -5.2801461      0              55.850605      2109.8793    
    214000   297.39204     -5.2956259      0              56.940254      2158.901     
    215000   297.45837     -2.6053409      0              59.644418      2168.2247    
    216000   305.46024     -5.2746525      0              58.649677      2118.1839    
    217000   291.9119      -4.2887698      0              56.800269      2089.257     
    218000   306.30608     -3.6182113      0              60.483128      2145.0215    
    219000   296.47315     -4.7156619      0              57.327918      2033.4578    
    220000   309.00766     -4.9589146      0              59.707791      2122.0028    
    221000   295.44125     -5.3264825      0              56.501151      1969.1939    
    222000   301.50757     -5.2497767      0              57.847367      2019.8917    
    223000   307.42529     -5.3641431      0              58.971417      1957.8698    
    224000   297.06043     -4.9935761      0              57.172907      2082.3168    
    225000   296.78303     -3.189192       0              58.919239      2231.0308    
    226000   291.05522     -4.1788341      0              56.730926      2053.3583    
    227000   300.47168     -5.3807028      0              57.49966       2017.8921    
    228000   299.66603     -4.5526525      0              58.159109      2217.4532    
    229000   308.9412      -5.3013822      0              59.351414      2069.2685    
    230000   285.65569     -5.338294       0              54.441494      1981.9601    
    231000   287.05339     -4.6647779      0              55.407509      2059.4344    
    232000   300.70337     -3.047417       0              59.881432      2134.4865    
    233000   298.57346     -3.7528085      0              58.730309      2104.5584    
    234000   300.82592     -5.1091281      0              57.845367      2076.9686    
    235000   295.86863     -5.336879       0              56.580193      1973.706     
    236000   296.95153     -6.3255225      0              55.81817       2075.666     
    237000   290.42713     -3.2489987      0              57.529319      2273.3922    
    238000   310.52066     -5.8864336      0              59.0969        2062.1205    
    239000   289.02703     -5.5449718      0              54.940344      2131.9458    
    240000   300.7061      -4.7786681      0              58.150751      2174.8799    
    241000   292.75618     -4.5276033      0              56.738118      2013.8309    
    242000   296.63008     -5.0390945      0              57.037327      2100.4852    
    243000   291.9756      -5.3424112      0              55.759958      2085.0709    
    244000   295.04207     -2.3943902      0              59.349706      2155.1793    
    245000   292.19977     -4.9666692      0              56.182613      2126.8041    
    246000   297.20368     -3.3938703      0              58.80259       2159.6078    
    247000   304.9472      -4.0557536      0              59.761211      2105.2736    
    248000   306.39865     -4.9430672      0              59.177644      2105.0788    
    249000   294.65023     -4.4569467      0              57.205148      2158.7404    
    250000   304.06043     -3.9161484      0              59.715239      2185.929     
    251000   302.86143     -4.0425531      0              59.337917      2188.726     
    252000   300.00761     -6.8387571      0              55.944489      1954.0617    
    253000   295.18324     -4.8655184      0              56.908121      2120.6421    
    254000   291.88893     -4.2026437      0              56.881587      2045.8002    
    255000   298.56889     -4.9346242      0              57.547538      2027.8733    
    256000   300.75394     -3.572125       0              59.367307      2133.5161    
    257000   292.89023     -5.2422344      0              56.05154       2047.2449    
    258000   310.44871     -4.1847863      0              60.783491      2136.1379    
    259000   302.20456     -4.7153605      0              58.527645      2198.1036    
    260000   311.99886     -5.3936024      0              59.899078      2061.159     
    261000   290.94836     -2.9621273      0              57.925269      2146.786     
    262000   297.18464     -5.3521402      0              56.840335      2027.1075    
    263000   298.06976     -4.79752        0              57.580186      2099.192     
    264000   298.08677     -3.2952631      0              59.086005      2151.7464    
    265000   317.61619     -2.4740326      0              63.994199      2221.7182    
    266000   299.13955     -4.6551354      0              57.94645       2072.4073    
    267000   296.7884      -4.621194       0              57.488361      2079.9145    
    268000   292.8285      -4.888183       0              56.392673      1963.1837    
    269000   294.33119     -5.1776276      0              56.417701      1996.0888    
    270000   307.29516     -3.8317787      0              60.476549      2088.0184    
    271000   286.09285     -5.3077027      0              54.563571      2059.2691    
    272000   299.57758     -5.2921613      0              57.401091      1984.3486    
    273000   297.14337     -5.4459464      0              56.737892      2058.1815    
    274000   292.04338     -6.5818594      0              54.534695      2075.4896    
    275000   304.55561     -6.4007872      0              57.334229      2022.8808    
    276000   299.74575     -5.4517777      0              57.276666      2013.6103    
    277000   290.66748     -3.0372715      0              57.791345      2102.8727    
    278000   304.6712      -5.1276562      0              58.631548      2102.2145    
    279000   304.84343     -4.6363985      0              59.158849      2045.5472    
    280000   294.99775     -4.0928055      0              57.642015      2045.1548    
    281000   311.7465      -2.7634717      0              62.476396      2132.2926    
    282000   302.31549     -2.679335       0              60.586885      2040.9128    
    283000   302.33085     -4.0807231      0              59.188712      2091.4078    
    284000   301.13039     -4.4969888      0              58.521224      2048.4032    
    285000   303.61351     -4.7505086      0              58.787351      2080.1752    
    286000   302.51704     -7.0588361      0              56.249562      2036.5393    
    287000   297.91389     -4.3375871      0              58.007501      2168.238     
    288000   303.0304      -6.8740817      0              56.54175       2061.8904    
    289000   306.93831     -5.2377478      0              58.995899      2063.0062    
    290000   310.8107      -5.0531766      0              59.990855      2087.201     
    291000   304.66261     -4.5657765      0              59.19163       2117.3044    
    292000   305.70852     -4.4922688      0              59.484019      2104.7106    
    293000   296.56516     -4.3780125      0              57.684823      2043.2667    
    294000   297.44585     -3.5446358      0              58.702505      2142.3274    
    295000   294.66849     -3.7873742      0              57.878541      2059.7887    
    296000   300.4989      -4.3092903      0              58.576769      2128.5925    
    297000   287.00359     -4.820582       0              55.241283      2162.2363    
    298000   299.46478     -4.6377354      0              58.031909      2068.902     
    299000   305.34543     -5.8096792      0              58.090623      2061.395     
    300000   302.46556     -4.106264       0              59.191362      2070.7648    
    301000   294.56624     -4.540868       0              57.103651      1987.7316    
    302000   300.34083     -4.920259       0              57.932719      2111.9192    
    303000   302.0303      -5.0254349      0              58.181103      2037.8797    
    304000   297.84752     -3.4708629      0              58.860334      2046.2366    
    305000   297.69821     -4.2687838      0              58.031167      2139.8295    
    306000   294.3822      -4.8552207      0              56.750783      2001.4467    
    307000   295.40028     -3.6732595      0              58.1458        2021.4756    
    308000   304.05016     -4.0038734      0              59.625366      2074.6136    
    309000   300.64303     -4.0371764      0              58.879045      2015.3673    
    310000   300.37229     -3.1064383      0              59.753124      2173.8313    
    311000   306.95439     -4.1901063      0              60.046907      2068.8013    
    312000   306.03032     -2.9048315      0              61.138799      2173.3556    
    313000   293.43688     -4.7249833      0              56.68319       2116.3704    
    314000   291.51571     -4.0296961      0              56.976431      2092.6322    
    315000   299.16959     -6.4336577      0              56.174213      2085.8004    
    316000   297.69791     -4.7392524      0              57.560638      2179.7709    
    317000   288.21077     -5.8499537      0              54.464541      2101.3668    
    318000   307.58133     -3.6501045      0              60.71811       2069.5769    
    319000   304.98849     -3.6802973      0              60.145306      2124.6822    
    320000   301.63092     -5.3812569      0              57.741701      2035.9211    
    321000   294.8593      -5.5366375      0              56.16921       2133.5572    
    322000   305.54612     -4.693046       0              59.249255      2043.218     
    323000   304.55287     -3.9681708      0              59.766271      2081.8257    
    324000   305.34774     -5.3129141      0              58.587872      2152.6026    
    325000   306.50808     -3.6651143      0              60.478499      2080.4671    
    326000   300.77908     -6.1693132      0              56.77538       2039.0543    
    327000   295.98279     -5.0648087      0              56.876154      2082.0367    
    328000   304.29981     -3.5964677      0              60.085015      2135.9208    
    329000   306.28667     -5.3577001      0              58.739578      2077.3503    
    330000   307.07852     -4.3767427      0              59.886247      2140.8951    
    331000   296.85795     -4.0265059      0              58.097603      2072.4089    
    332000   311.27632     -4.3025298      0              60.838943      2179.9471    
    333000   308.27614     -4.2250079      0              60.288609      2080.7795    
    334000   298.76777     -4.7011365      0              57.822645      1953.4357    
    335000   289.87753     -5.4514977      0              55.211803      1904.5479    
    336000   294.37524     -5.0526876      0              56.551859      2004.8547    
    337000   315.72977     -4.1432179      0              61.930238      2233.2675    
    338000   300.44995     -3.9443845      0              58.931431      2080.4446    
    339000   305.37132     -4.4467228      0              59.458997      2153.1938    
    340000   296.542       -4.5713466      0              57.486642      2080.6677    
    341000   305.33749     -3.3069641      0              60.591676      2107.4897    
    342000   301.16057     -4.465651       0              58.558877      2033.5874    
    343000   297.23395     -5.8927262      0              56.31007       2080.9386    
    344000   292.46178     -6.7197761      0              54.484336      2090.6216    
    345000   299.80141     -5.0567177      0              57.683375      2061.5619    
    346000   302.56585     -4.9723743      0              58.34624       1964.5052    
    347000   319.71787     -3.7544935      0              63.153561      2206.5765    
    348000   300.77184     -4.2034667      0              58.73971       2112.6827    
    349000   303.95436     -2.8354382      0              60.773751      2204.3722    
    350000   300.17752     -3.2637848      0              59.555017      2152.068     
    351000   295.01535     -3.0712586      0              58.667246      2161.0843    
    352000   293.88426     -4.4577169      0              57.044081      2063.1612    
    353000   301.49095     -4.1728206      0              58.920846      2162.0116    
    354000   291.7271      -5.468089       0              55.582275      1980.3519    
    355000   308.95379     -2.9325694      0              61.722862      2288.8631    
    356000   286.52269     -4.1012234      0              55.860004      2087.9079    
    357000   306.18331     -3.9845017      0              60.091146      2185.6856    
    358000   304.31138     -5.4518256      0              58.232079      2073.0712    
    359000   310.64287     -4.8308195      0              60.178089      2107.9371    
    360000   295.05451     -5.2957737      0              56.450925      2084.3267    
    361000   310.34064     -4.7164042      0              60.229256      2055.183     
    362000   307.36307     -4.1519003      0              60.170638      2216.8258    
    363000   300.84032     -5.6851068      0              57.272401      1984.7827    
    364000   290.17021     -3.8528469      0              56.871704      2007.7391    
    365000   309.29216     -5.6301875      0              59.096056      2051.3437    
    366000   294.13247     -4.6112201      0              56.942522      2061.6246    
    367000   293.36737     -5.2769622      0              56.116666      2066.8574    
    368000   303.31525     -3.5134981      0              59.961945      2061.8706    
    369000   304.47094     -4.091916       0              59.62538       2145.5499    
    370000   305.05004     -3.8772057      0              59.961279      2047.0982    
    371000   294.56186     -3.3662608      0              58.277341      2080.3235    
    372000   297.12341     -4.7616795      0              57.417983      2145.9993    
    373000   304.25475     -3.3866093      0              60.285444      2146.7993    
    374000   309.70073     -4.7461349      0              60.065611      2077.9466    
    375000   293.29837     -4.5655052      0              56.813683      2014.0252    
    376000   297.99988     -4.5523478      0              57.810736      2158.5394    
    377000   290.20141     -4.6556544      0              56.075427      2239.7269    
    378000   295.98125     -4.5422415      0              57.398399      2055.1909    
    379000   304.8796      -6.6369233      0              57.165894      1967.272     
    380000   299.99587     -4.3734538      0              58.407334      2130.6319    
    381000   304.04388     -5.187488       0              58.440436      2173.2655    
    382000   301.05501     -4.3924341      0              58.610002      2174.3071    
    383000   299.56331     -4.1612893      0              58.528977      2082.2387    
    384000   304.09766     -4.722409       0              58.916769      2105.5582    
    385000   297.60909     -4.3962827      0              57.885018      2046.7523    
    386000   299.31145     -4.2425508      0              58.395006      2123.6256    
    387000   301.13043     -3.6772408      0              59.34098       2023.849     
    388000   304.38106     -4.5517135      0              59.146773      2197.6201    
    389000   292.06821     -4.539848       0              56.581901      2123.1665    
    390000   303.67389     -4.4716202      0              59.078876      2152.6627    
    391000   297.91988     -4.0604593      0              58.285881      2123.8848    
    392000   299.54385     -4.6437793      0              58.042414      2057.588     
    393000   298.77304     -6.6181338      0              55.90675       2032.5182    
    394000   298.71728     -5.2648851      0              57.24833       2081.8234    
    395000   301.60686     -5.1753178      0              57.942606      2152.7528    
    396000   294.47        -4.4813974      0              57.142979      2096.0147    
    397000   290.5945      -4.7676529      0              56.04569       2037.4182    
    398000   296.77068     -4.8673489      0              57.238498      2063.416     
    399000   296.09239     -2.3230649      0              59.640834      2224.7798    
    400000   306.19292     -3.6717799      0              60.405877      2185.0345    
    401000   305.30936     -3.8786461      0              60.014107      2113.0996    
    402000   312.79846     -4.1958925      0              61.264121      2192.0519    
    403000   296.60268     -5.0354568      0              57.035232      2053.1971    
    404000   294.82927     -3.517231       0              58.182332      2109.9248    
    405000   292.48339     -6.3683022      0              54.840334      1939.2179    
    406000   302.39893     -4.3912216      0              58.89246       2123.2127    
    407000   305.34896     -4.8948718      0              59.006169      2184.5091    
    408000   301.48536     -4.0581561      0              59.034342      2155.769     
    409000   290.76654     -6.4799722      0              54.369374      2006.2211    
    410000   304.60757     -4.0501167      0              59.695771      2069.4691    
    411000   297.07851     -3.3272547      0              58.843011      2124.5016    
    412000   301.17127     -4.8681243      0              58.158642      2043.7388    
    413000   297.14347     -5.028551       0              57.15531       2048.4731    
    414000   287.67558     -3.7158782      0              56.486616      2073.5544    
    415000   307.33367     -4.8316192      0              59.484766      2167.6231    
    416000   295.86014     -6.3119305      0              55.603365      1994.6384    
    417000   293.84771     -3.9593731      0              57.534777      2103.9617    
    418000   301.19108     -4.0703237      0              58.960588      2118.9619    
    419000   300.74808     -5.304272       0              57.633932      2140.4136    
    420000   304.00643     -5.144121       0              58.475966      1947.7692    
    421000   304.89918     -4.0663843      0              59.740531      2057.5516    
    422000   294.74839     -2.2226685      0              59.459968      2134.4806    
    423000   293.08139     -5.1141452      0              56.219635      2091.3878    
    424000   292.24772     -3.443049       0              57.716268      2080.1564    
    425000   309.09532     -3.8628173      0              60.822232      2025.608     
    426000   297.67389     -4.2399745      0              58.054888      2136.8       
    427000   296.18388     -4.9286868      0              57.054359      2004.1338    
    428000   303.71414     -4.2492939      0              59.309624      2131.8829    
    429000   303.15457     -4.2785163      0              59.163301      2070.4458    
    430000   297.23564     -5.0299664      0              57.173183      2002.8051    
    431000   295.82312     -4.3281188      0              57.57943       2072.6665    
    432000   311.15431     -4.300215       0              60.815725      2105.8048    
    433000   305.2201      -4.2299895      0              59.644084      2116.7473    
    434000   298.23925     -4.9479117      0              57.465264      2136.8566    
    435000   301.0969      -4.1578977      0              58.853305      2101.4109    
    436000   307.21763     -5.3072802      0              58.984821      2155.7105    
    437000   299.85061     -4.1088384      0              58.641552      2117.0912    
    438000   298.01729     -5.1400661      0              57.226659      2077.0747    
    439000   299.70601     -4.6144779      0              58.105651      2094.9698    
    440000   286.82378     -5.9534626      0              54.070773      1933.7284    
    441000   307.20344     -4.0210247      0              60.268108      2087.1089    
    442000   304.54578     -4.9477         0              58.785257      2075.6778    
    443000   299.20682     -3.5725366      0              59.043125      2105.7527    
    444000   304.72697     -3.6267941      0              60.144081      2046.1643    
    445000   300.34018     -4.5475665      0              58.305277      2070.8554    
    446000   300.76927     -6.3481708      0              56.594469      2027.6916    
    447000   299.32895     -4.0614738      0              58.579746      2076.5622    
    448000   305.21129     -4.1513189      0              59.720912      2152.4552    
    449000   297.48469     -4.5746173      0              57.68065       2109.1927    
    450000   301.97835     -3.9876381      0              59.208028      2069.9491    
    451000   308.2648      -4.1877576      0              60.323489      2048.2043    
    452000   310.40211     -5.9254147      0              59.033111      2134.1159    
    453000   300.66393     -5.2694409      0              57.651154      2145.744     
    454000   297.32297     -5.7278804      0              56.493545      2000.0566    
    455000   301.68347     -5.8211891      0              57.312767      2030.1284    
    456000   302.50672     -4.4100083      0              58.896231      2139.2782    
    457000   306.17279     -3.7794149      0              60.294031      2153.9141    
    458000   298.77632     -3.5119717      0              59.013598      2066.2415    
    459000   282.27491     -3.8478179      0              55.224466      2102.6571    
    460000   309.9651      -6.1029242      0              58.764146      2045.9176    
    461000   292.94164     -5.054696       0              56.249839      2167.2257    
    462000   300.12978     -5.3172541      0              57.491558      1982.733     
    463000   301.99475     -3.2479505      0              59.951147      2229.3651    
    464000   300.20193     -4.9098196      0              57.914092      2107.5653    
    465000   307.53336     -4.7548606      0              59.603314      2123.0808    
    466000   294.34356     -4.8523842      0              56.745533      2083.3897    
    467000   296.08734     -4.7915821      0              57.171259      2067.6408    
    468000   287.32245     -4.4629512      0              55.665644      2053.8675    
    469000   303.12929     -4.4633399      0              58.973185      2030.3002    
    470000   305.64715     -6.9133988      0              57.050046      2083.887     
    471000   295.3353      -5.295244       0              56.510216      2021.3831    
    472000   295.7764      -5.3487655      0              56.549006      2036.8738    
    473000   319.00352     -4.4140555      0              62.344504      2049.4078    
    474000   311.48361     -5.396819       0              59.788033      2017.6881    
    475000   293.99018     -3.352892       0              58.171071      2126.3026    
    476000   296.14725     -5.3576443      0              56.617735      2033.7034    
    477000   299.06314     -4.4444599      0              58.141133      2109.7314    
    478000   297.64703     -5.3740958      0              56.915145      2152.053     
    479000   297.48912     -3.321356       0              58.934839      2139.3696    
    480000   301.18518     -4.6518817      0              58.377796      2170.85      
    481000   293.75366     -2.9145936      0              58.559874      2156.9257    
    482000   296.04868     -4.8291055      0              57.125645      2003.1203    
    483000   289.14698     -4.7990354      0              55.711382      2031.9028    
    484000   300.03071     -5.671331       0              57.116749      2099.2185    
    485000   298.95219     -5.3158965      0              57.246477      2097.1898    
    486000   303.32515     -4.1336147      0              59.3439        2097.751     
    487000   293.09648     -5.3162579      0              56.020681      2079.6718    
    488000   300.5024      -4.0831094      0              58.803682      2043.7306    
    489000   304.4841      -5.0107062      0              58.709343      2082.8082    
    490000   297.33062     -4.8300982      0              57.392926      2119.0523    
    491000   307.50294     -3.9652899      0              60.386519      2120.8139    
    492000   297.68804     -4.793513       0              57.50431       2028.8388    
    493000   298.91793     -3.5980403      0              58.957166      2213.3314    
    494000   305.72002     -5.6381243      0              58.34057       2101.921     
    495000   296.67691     -5.4223532      0              56.66387       2073.1734    
    496000   297.08022     -3.4817925      0              58.688832      2159.9905    
    497000   291.50488     -4.4572173      0              56.546643      2083.1678    
    498000   303.00307     -4.1922774      0              59.217834      2030.2472    
    499000   297.34645     -6.0481834      0              56.178155      2034.8273    
    500000   299.61291     -3.9195614      0              58.781083      2239.7295    
    501000   299.15545     -5.4228175      0              57.182094      1982.8802    
    502000   297.25187     -3.0994744      0              59.10707       2101.9165    
    503000   299.45152     -3.4274125      0              59.239458      2096.4502    
    504000   299.50279     -5.6116969      0              57.065903      2083.023     
    505000   292.53255     -5.0012235      0              56.217699      2062.2749    
    506000   298.06218     -4.8723956      0              57.503726      1982.4951    
    507000   303.15404     -4.7592961      0              58.682409      2143.8088    
    508000   293.41667     -3.1701312      0              58.233814      2143.9814    
    509000   300.437       -5.2535493      0              57.619556      2014.9736    
    510000   307.65493     -4.5844742      0              59.799142      1987.3647    
    511000   296.89973     -4.0201376      0              58.112714      2087.0918    
    512000   304.1631      -5.2785302      0              58.374343      2110.6446    
    513000   300.98137     -4.6143997      0              58.372627      2210.7442    
    514000   299.98011     -4.4973324      0              58.280157      2025.8635    
    515000   292.14959     -6.2418799      0              54.896901      2072.4431    
    516000   303.86127     -4.288485       0              59.301224      2020.6951    
    517000   308.47108     -3.7199649      0              60.834448      2102.9513    
    518000   303.08623     -3.4063745      0              60.021139      2098.7167    
    519000   300.18956     -1.8878412      0              60.93348       2237.8598    
    520000   321.45013     -5.8225342      0              61.448034      2014.932     
    521000   300.57378     -4.074527       0              58.827202      2151.9324    
    522000   295.84193     -5.5720667      0              56.339416      2056.9584    
    523000   293.28359     -5.6654956      0              55.710599      2029.572     
    524000   304.78201     -4.7606358      0              59.021759      2025.2962    
    525000   309.1355      -3.876201       0              60.817257      2237.8042    
    526000   295.3135      -6.094502       0              55.706397      2086.7785    
    527000   300.01826     -5.5540164      0              57.231457      2025.63      
    528000   287.72588     -4.8844895      0              55.328532      2048.9276    
    529000   302.33917     -4.1521954      0              59.118981      2136.7589    
    530000   300.08639     -5.95944        0              56.840291      1952.5851    
    531000   305.21246     -4.1846321      0              59.687844      2086.39      
    532000   306.96097     -4.6578293      0              59.580561      1973.398     
    533000   299.95657     -3.9042298      0              58.868333      2088.8886    
    534000   294.56065     -2.2929727      0              59.350376      2137.6534    
    535000   307.09865     -5.2025763      0              59.064627      2101.7442    
    536000   299.50703     -4.3096886      0              58.3688        2122.9777    
    537000   303.71831     -5.215708       0              58.344083      2044.0717    
    538000   298.35331     -4.4901928      0              57.946854      2086.2038    
    539000   296.28146     -5.8158104      0              56.187656      2044.6074    
    540000   290.65571     -4.97266        0              55.853493      2104.353     
    541000   301.62049     -4.9037221      0              58.217054      1982.6919    
    542000   292.54317     -3.9051021      0              57.316043      2130.2292    
    543000   300.69722     -2.2212739      0              60.706288      2248.6639    
    544000   304.32285     -2.5980379      0              61.088267      2194.5038    
    545000   301.57692     -4.6188992      0              58.492759      2144.0003    
    546000   298.36443     -5.4950576      0              56.944315      2048.2524    
    547000   302.8907      -3.6615903      0              59.725005      2131.4188    
    548000   299.00432     -5.5584382      0              57.014846      2095.7646    
    549000   294.98723     -4.5292662      0              57.203352      2078.0692    
    550000   297.30331     -3.3669794      0              58.850331      2192.0721    
    551000   299.98079     -3.8004953      0              58.977136      2143.628     
    552000   302.63461     -4.5543404      0              58.778662      2074.9025    
    553000   291.39704     -3.5161654      0              57.465127      2215.7563    
    554000   305.18201     -5.5711471      0              58.294956      2139.0698    
    555000   295.23247     -4.8102242      0              56.973717      2076.6805    
    556000   306.59153     -4.3988477      0              59.762228      2096.7825    
    557000   302.75514     -4.3125279      0              59.045699      2225.2953    
    558000   308.56859     -4.8975156      0              59.677304      2122.5588    
    559000   290.31222     -3.9500671      0              56.804204      2039.5804    
    560000   302.897       -4.5686146      0              58.8193        2158.7564    
    561000   304.55329     -4.5374861      0              59.197044      2184.1167    
    562000   318.56167     -5.4878126      0              61.178281      2063.709     
    563000   290.92314     -6.5279962      0              54.354122      1989.3177    
    564000   301.11841     -3.3275595      0              59.688146      2173.8363    
    565000   294.97636     -4.2635438      0              57.4668        2082.8428    
    566000   295.02082     -4.2564611      0              57.483187      2065.0007    
    567000   305.51486     -5.1672775      0              58.768481      2063.1374    
    568000   303.3195      -3.9798298      0              59.496501      2209.4304    
    569000   309.69924     -4.6360347      0              60.1754        2076.405     
    570000   298.21336     -4.4348834      0              57.972875      2138.9918    
    571000   294.92447     -3.6221535      0              58.097332      2083.5497    
    572000   290.28509     -4.3269794      0              56.421613      2071.5258    
    573000   310.27891     -2.9105464      0              62.022197      2282.1825    
    574000   299.94912     -5.6478638      0              57.123141      1983.0779    
    575000   314.4078      -5.2866107      0              60.510194      2044.1641    
    576000   304.05239     -4.4399983      0              59.189706      2047.4143    
    577000   303.75856     -6.4180066      0              57.150208      2051.0182    
    578000   296.36733     -4.7790204      0              57.242415      2037.6261    
    579000   298.94371     -3.8812778      0              58.679323      2120.3279    
    580000   300.50904     -4.5284562      0              58.359725      2042.766     
    581000   314.6019      -5.8402217      0              59.997202      2166.7098    
    582000   291.78492     -5.6704576      0              55.392008      2041.3       
    583000   295.80274     -4.5445931      0              57.35869       2144.312     
    584000   294.16558     -5.5915646      0              55.969107      2049.277     
    585000   307.67051     -4.877008       0              59.509869      2056.346     
    586000   304.92047     -2.7399566      0              61.071414      2212.9326    
    587000   297.70435     -3.6330668      0              58.66817       2127.28      
    588000   307.46077     -4.3713711      0              59.971613      2120.1025    
    589000   298.98643     -5.631804       0              56.937736      2020.4258    
    590000   305.3627      -3.805262       0              60.098655      2121.9233    
    591000   309.50022     -2.6062944      0              62.16349       2167.223     
    592000   302.33476     -4.975018       0              58.295235      2133.9328    
    593000   292.67588     -3.3674428      0              57.881475      2151.4134    
    594000   306.72125     -4.92918        0              59.259044      2072.9655    
    595000   294.73136     -5.4016494      0              56.277423      2110.0972    
    596000   302.6453      -4.8359581      0              58.499283      2093.1315    
    597000   307.40328     -5.6208642      0              58.710089      2067.465     
    598000   300.9137      -5.5224197      0              57.450445      2066.85      
    599000   303.67936     -5.1937376      0              58.357902      2029.6345    
    600000   298.22333     -3.7953988      0              58.614446      2108.9878    
    601000   302.42045     -4.1528136      0              59.135371      2164.4365    
    602000   298.945       -4.3622173      0              58.198653      2076.1125    
    603000   312.278       -4.3808191      0              60.970278      2062.3434    
    604000   291.83474     -5.2065486      0              55.866341      2035.6502    
    605000   297.73529     -4.8561144      0              57.451596      2073.3502    
    606000   297.48876     -5.2067821      0              57.049337      2057.9557    
    607000   293.73161     -3.9758561      0              57.493996      2092.9883    
    608000   300.32794     -4.6665434      0              58.183739      2100.6238    
    609000   302.48946     -2.851217       0              60.45141       2068.917     
    610000   296.84479     -3.7987708      0              58.322585      2045.2412    
    611000   301.92106     -3.1232915      0              60.060386      2114.9709    
    612000   294.37399     -4.6237296      0              56.980556      2112.1256    
    613000   302.01565     -5.3945573      0              57.808916      2093.8915    
    614000   300.69904     -5.4684889      0              57.459452      2093.1775    
    615000   297.14432     -5.5281154      0              56.655924      2102.3989    
    616000   298.03641     -4.9189741      0              57.451754      2054.1995    
    617000   285.95052     -4.684973       0              55.156515      2095.121     
    618000   294.58805     -5.1467603      0              56.502321      2100.6413    
    619000   293.53535     -4.9112873      0              56.517494      2074.5805    
    620000   296.16966     -6.4695854      0              55.510483      2092.2714    
    621000   297.58402     -3.7603992      0              58.515656      2124.8562    
    622000   304.6495      -6.8760965      0              56.878566      2137.3378    
    623000   293.93024     -4.6187488      0              56.892671      2113.4676    
    624000   298.48912     -4.7504972      0              57.714971      2204.3802    
    625000   297.01902     -5.5687632      0              56.589053      2005.0255    
    626000   303.78743     -4.6154196      0              58.958836      2027.1384    
    627000   302.73201     -5.0068269      0              58.346559      2068.7817    
    628000   306.13854     -3.9460477      0              60.120231      2098.4829    
    629000   302.80234     -5.9109774      0              57.457126      2059.9388    
    630000   304.12451     -3.3432987      0              60.3015        2198.3177    
    631000   302.72395     -4.0325933      0              59.319106      2070.2775    
    632000   304.41397     -4.9958886      0              58.709485      2206.5515    
    633000   305.03248     -5.2185586      0              58.616251      2092.2726    
    634000   302.41992     -4.1819545      0              59.106121      2230.4184    
    635000   306.53949     -4.0725772      0              60.077608      2223.5305    
    636000   301.53446     -5.313684       0              57.789089      2036.6643    
    637000   297.44789     -2.8842818      0              59.363284      2126.3983    
    638000   289.5938      -5.520063       0              55.083862      2094.7384    
    639000   301.55343     -4.9460609      0              58.160681      2108.6885    
    640000   308.31378     -4.1190375      0              60.402458      2173.9566    
    641000   299.75251     -4.9289681      0              57.800892      2092.9602    
    642000   295.05683     -4.7604836      0              56.986701      2048.3841    
    643000   292.06078     -4.967289       0              56.152905      1968.9613    
    644000   307.01752     -3.9480948      0              60.302129      2147.7597    
    645000   297.70414     -3.9548977      0              58.346295      2167.239     
    646000   297.33501     -4.4560502      0              57.767895      2043.7148    
    647000   310.88726     -6.5749762      0              58.485077      2200.5205    
    648000   294.95917     -3.3669094      0              58.359838      2162.0157    
    649000   301.51032     -5.7336448      0              57.364075      2006.9466    
    650000   306.05978     -5.9009561      0              58.148841      2017.3783    
    651000   294.75552     -5.2822443      0              56.401885      2101.0396    
    652000   293.6019      -6.2500503      0              55.192658      2053.4457    
    653000   308.28537     -5.2774437      0              59.238106      2017.1415    
    654000   303.86674     -5.2903874      0              58.300466      1956.729     
    655000   309.60917     -4.6748518      0              60.117732      2006.7662    
    656000   300.60297     -5.1215446      0              57.786293      2032.5672    
    657000   292.99473     -3.0995899      0              58.216054      2155.516     
    658000   301.9726      -4.6075174      0              58.586946      2074.8617    
    659000   304.46555     -5.1470893      0              58.569078      2105.974     
    660000   310.0621      -4.5484254      0              60.338945      2130.7205    
    661000   299.93703     -3.5101926      0              59.258282      2113.2202    
    662000   295.11505     -4.8065723      0              56.952796      2040.5656    
    663000   303.42506     -5.5772584      0              57.921164      2068.8954    
    664000   296.56237     -5.0715148      0              56.990737      2141.1576    
    665000   287.4715      -3.1624026      0              56.997384      2089.2674    
    666000   306.48842     -4.7583982      0              59.3811        2018.8899    
    667000   313.49841     -6.0236602      0              59.582834      2009.9017    
    668000   295.35522     -5.514194       0              56.295435      2025.304     
    669000   296.1101      -5.5945675      0              56.373036      2153.462     
    670000   300.68471     -5.0438849      0              57.881059      2130.5892    
    671000   297.43732     -3.3706005      0              58.874754      2043.226     
    672000   294.23879     -3.5163743      0              58.059618      2155.1195    
    673000   295.69186     -4.1243542      0              57.755725      1961.6998    
    674000   297.31928     -4.7264115      0              57.49424       2139.6706    
    675000   299.03413     -4.0879448      0              58.491577      2109.7588    
    676000   304.12492     -4.7983199      0              58.846564      2134.1496    
    677000   312.10672     -4.8484251      0              60.466827      2093.235     
    678000   298.92454     -4.5474519      0              58.009136      2111.855     
    679000   296.71861     -4.1052916      0              57.989658      2089.0439    
    680000   307.59015     -5.1328233      0              59.237237      2121.5739    
    681000   295.90821     -4.3516633      0              57.573691      1996.0007    
    682000   295.97616     -4.3320844      0              57.60749       2115.4892    
    683000   303.60695     -5.8005574      0              57.73593       2093.994     
    684000   302.1874      -5.6740143      0              57.565399      2091.914     
    685000   292.9223      -4.5878258      0              56.712662      2099.8216    
    686000   292.15837     -4.480481       0              56.660137      2036.3291    
    687000   296.55691     -6.0796534      0              55.981456      2052.2079    
    688000   296.49006     -3.8249443      0              58.222176      2083.2103    
    689000   293.71564     -4.7374183      0              56.729092      1986.8237    
    690000   305.40896     -5.2224487      0              58.691148      2030.8225    
    691000   298.80533     -4.3333646      0              58.198276      2182.0233    
    692000   293.77509     -3.6857348      0              57.793218      2069.4192    
    693000   298.57765     -4.3065742      0              58.17742       2100.94      
    694000   292.49134     -4.6061323      0              56.604167      2010.3911    
    695000   306.03073     -3.7329152      0              60.310801      2209.3156    
    696000   310.48744     -3.6409895      0              61.335393      1999.1765    
    697000   289.90185     -4.9818248      0              55.686565      1993.7207    
    698000   302.07273     -2.8454519      0              60.369965      2133.171     
    699000   289.86338     -5.5248968      0              55.135444      2073.3092    
    700000   306.01182     -6.0032765      0              58.036482      2056.0073    
    701000   299.45129     -4.2625936      0              58.404229      2095.5201    
    702000   296.5318      -2.8145054      0              59.241349      2194.3505    
    703000   304.45642     -3.7930345      0              59.921223      2102.1266    
    704000   298.05962     -6.1098065      0              56.265778      2036.811     
    705000   294.39969     -3.5520397      0              58.057623      2122.3809    
    706000   286.46588     -4.9529636      0              54.996375      2009.9264    
    707000   303.14362     -3.301124       0              60.1384        2087.5706    
    708000   296.07552     -6.4787474      0              55.48162       2029.9117    
    709000   302.0445      -4.7072144      0              58.502294      1999.8208    
    710000   303.63523     -3.9532919      0              59.589113      2086.7217    
    711000   298.84865     -4.5025479      0              58.038159      2125.2478    
    712000   293.9397      -1.8612563      0              59.652144      2244.2633    
    713000   306.84587     -5.8868968      0              58.327406      1973.8747    
    714000   304.46461     -4.2865252      0              59.429446      2078.1954    
    715000   303.22354     -5.7815752      0              57.674675      2039.5695    
    716000   295.44919     -3.9706818      0              57.858613      2074.7288    
    717000   301.49457     -5.132143       0              57.962282      2050.6472    
    718000   289.33345     -3.9091032      0              56.640338      1973.3249    
    719000   300.63209     -3.8789523      0              59.034978      2210.3407    
    720000   298.64544     -5.3571319      0              57.141048      2067.9119    
    721000   298.90089     -6.2886549      0              56.262984      1987.6628    
    722000   294.20806     -5.2207248      0              56.348836      2032.6867    
    723000   310.77863     -4.7414983      0              60.295821      2138.7237    
    724000   309.61305     -3.5879429      0              61.205453      2075.2484    
    725000   314.60192     -3.9224779      0              61.914951      2096.7725    
    726000   298.91525     -3.5120866      0              59.042558      2092.2059    
    727000   289.30439     -3.7321767      0              56.811182      1985.4749    
    728000   303.84552     -5.1420247      0              58.444388      2098.2938    
    729000   305.72643     -6.0150901      0              57.964945      2135.4628    
    730000   299.13753     -5.4304812      0              57.17068       2048.1814    
    731000   297.32967     -4.1530202      0              58.069806      2023.7574    
    732000   288.15912     -3.4498648      0              56.853821      2092.2122    
    733000   305.61972     -4.0081285      0              59.949576      2139.1615    
    734000   282.60212     -4.5505559      0              54.590205      2024.62      
    735000   303.56707     -5.025565       0              58.502575      2170.696     
    736000   290.44585     -4.6237032      0              56.158532      2023.4172    
    737000   294.29157     -3.5689416      0              58.018095      2153.5487    
    738000   302.38927     -4.0681415      0              59.213518      2172.5768    
    739000   290.56354     -5.3898048      0              55.41706       1967.5048    
    740000   305.94853     -4.3575881      0              59.668927      2211.4751    
    741000   304.05859     -5.9342443      0              57.696757      2079.6229    
    742000   296.76083     -4.1784786      0              57.925306      2003.9961    
    743000   312.19854     -4.129157       0              61.20531       2212.6689    
    744000   299.80133     -5.4342815      0              57.305795      2040.9962    
    745000   300.8706      -5.2749962      0              57.688849      2075.2752    
    746000   298.67783     -4.4209353      0              58.084024      2103.9165    
    747000   301.1041      -2.4544575      0              60.558252      2199.3268    
    748000   301.84082     -4.5473464      0              58.619538      2175.229     
    749000   304.93601     -4.782296       0              59.032325      2122.2887    
    750000   303.28123     -4.3951932      0              59.073129      2166.31      
    751000   301.35763     -5.0348972      0              58.030869      1979.1907    
    752000   308.99092     -4.4721662      0              60.191035      2082.5616    
    753000   298.74511     -5.8987284      0              56.62031       2155.0372    
    754000   292.5894      -4.4508032      0              56.780016      2060.035     
    755000   306.38777     -4.672104       0              59.446331      2067.3669    
    756000   301.10225     -4.3523613      0              58.659961      2057.0074    
    757000   312.72123     -5.5720145      0              59.871838      2090.4371    
    758000   300.50917     -5.6145032      0              57.273704      2102.9579    
    759000   301.06596     -5.1099314      0              57.894796      2016.8076    
    760000   294.71193     -4.3964065      0              57.2786        2107.5523    
    761000   298.31391     -4.262055       0              58.166745      2186.6322    
    762000   309.07808     -5.0152159      0              59.666225      2025.0331    
    763000   296.83235     -4.5594884      0              57.559263      2163.7055    
    764000   297.64905     -4.2438415      0              58.045823      2216.8103    
    765000   299.98727     -3.8270652      0              58.951923      2025.4199    
    766000   297.27579     -3.7145755      0              58.496976      2141.6039    
    767000   288.28787     -5.673911       0              54.656718      2021.1066    
    768000   293.07391     -4.2017277      0              57.130488      2022.9444    
    769000   297.71946     -3.4312239      0              58.873176      2125.9709    
    770000   305.37508     -5.0455247      0              58.860983      2050.8207    
    771000   298.03202     -6.0019635      0              56.367846      2009.2031    
    772000   298.20748     -3.5062115      0              58.900317      2196.0698    
    773000   306.21233     -2.6749925      0              61.406728      2203.5886    
    774000   304.63713     -4.0940343      0              59.65804       2028.6666    
    775000   304.81551     -5.9955701      0              57.793834      1992.5623    
    776000   296.03947     -5.1134863      0              56.839337      2104.9925    
    777000   304.29493     -4.0708584      0              59.609603      2065.5819    
    778000   307.07467     -4.0383815      0              60.223801      2140.0936    
    779000   300.0644      -6.7689378      0              56.026191      2064.5914    
    780000   307.52235     -4.9084874      0              59.447383      2075.2234    
    781000   301.63209     -4.4831442      0              58.640059      2140.9068    
    782000   301.68255     -4.1542032      0              58.979561      2081.7327    
    783000   299.22337     -4.6433638      0              57.975761      2100.2868    
    784000   300.68699     -3.7204175      0              59.205003      2084.6703    
    785000   306.05899     -4.0101268      0              60.039503      2085.5768    
    786000   292.1305      -3.2212191      0              57.913566      2052.8792    
    787000   305.97992     -5.3962471      0              58.636836      2101.0748    
    788000   296.87672     -6.0319479      0              56.09609       1954.898     
    789000   296.00168     -5.7152961      0              56.22962       1973.7594    
    790000   297.89123     -4.5199462      0              57.820399      2135.0021    
    791000   291.73371     -6.1056272      0              54.946122      2155.249     
    792000   297.21115     -4.3052267      0              57.892797      2086.4311    
    793000   307.34174     -3.8259883      0              60.492086      2089.0276    
    794000   304.10656     -4.818208       0              58.822833      2200.8914    
    795000   307.45989     -5.7597931      0              58.583007      1959.4772    
    796000   306.32146     -2.8379901      0              61.266569      2153.908     
    797000   301.67045     -5.8676798      0              57.26355       2045.0486    
    798000   297.01011     -5.1524649      0              57.003487      2128.2693    
    799000   300.67863     -2.9511897      0              59.972481      2085.2985    
    800000   292.86557     -4.0812535      0              57.207362      2096.1343    
    801000   305.64163     -3.5272439      0              60.435045      2155.544     
    802000   298.28472     -3.3772525      0              59.04544       2172.3514    
    803000   303.45139     -6.3148724      0              57.18906       1927.3702    
    804000   310.81417     -5.3018286      0              59.742928      2090.2482    
    805000   299.24592     -5.5008718      0              57.122974      1969.103     
    806000   297.80766     -4.0264307      0              58.296426      2091.7873    
    807000   300.9495      -4.2057828      0              58.774573      2043.0193    
    808000   297.59384     -3.2380973      0              59.040013      2106.3833    
    809000   296.49384     -6.1044112      0              55.943499      1972.4772    
    810000   300.2416      -4.172787       0              58.659425      2148.1666    
    811000   308.11738     -3.0766851      0              61.403709      2151.974     
    812000   299.52231     -5.577749       0              57.103936      2111.1453    
    813000   299.33867     -5.8828433      0              56.760411      2012.9969    
    814000   294.44711     -3.2427813      0              58.376806      2126.2214    
    815000   301.42955     -5.7301735      0              57.350645      2063.4766    
    816000   296.79998     -5.2469602      0              56.865016      2083.0709    
    817000   289.42981     -4.92949        0              55.640116      2022.7877    
    818000   295.81731     -3.3819934      0              58.524338      2173.0115    
    819000   293.47198     -5.5394914      0              55.876029      2018.8975    
    820000   301.73548     -5.5991734      0              57.545667      2038.8812    
    821000   298.61476     -5.0049839      0              57.486777      2090.4037    
    822000   301.06282     -3.0301041      0              59.973968      2176.8527    
    823000   305.58382     -5.4395254      0              58.510665      2063.6608    
    824000   294.4012      -5.7240149      0              55.885965      2089.4323    
    825000   298.563       -3.9520298      0              58.528899      2086.0508    
    826000   304.09811     -5.5974906      0              58.041782      2068.5559    
    827000   295.84239     -5.0937053      0              56.817875      2040.9991    
    828000   308.14452     -5.1057208      0              59.380352      2066.7181    
    829000   306.07968     -3.1959864      0              60.857973      2198.0346    
    830000   294.33765     -5.3588239      0              56.237855      2049.8224    
    831000   315.36722     -5.4944537      0              60.50313       2007.0848    
    832000   315.00195     -4.3125893      0              61.608554      2101.4744    
    833000   296.06012     -5.7384081      0              56.218737      2021.4532    
    834000   299.56166     -4.6029005      0              58.08702       2117.2937    
    835000   302.70189     -4.1640366      0              59.183047      2018.263     
    836000   302.83433     -4.8134636      0              58.561335      2179.1231    
    837000   294.2721      -4.5390009      0              57.043962      2104.2319    
    838000   285.02937     -3.6563813      0              55.992334      2154.7943    
    839000   296.38472     -3.758976       0              58.266099      2123.1223    
    840000   309.63887     -3.8903862      0              60.908415      2087.465     
    841000   292.61343     -4.0626534      0              57.173195      2113.9855    
    842000   304.16167     -4.5766187      0              59.075956      2073.4747    
    843000   298.30825     -3.0146249      0              59.41299       2096.5258    
    844000   287.48148     -3.7585715      0              56.403303      2072.3448    
    845000   302.71198     -4.0707774      0              59.278417      2122.8888    
    846000   297.10789     -3.6160502      0              58.560364      2072.4813    
[...]
   1814000   292.68865     -5.5688197      0              55.68277       1996.4986    
   1815000   298.15316     -4.1756708      0              58.219489      2113.451     
   1816000   303.60429     -5.128807       0              58.407123      2033.119     
   1817000   304.12799     -4.034527       0              59.610998      2161.7842    
   1818000   304.33358     -2.0558248      0              61.632726      2151.5725    
   1819000   299.14232     -6.611265       0              55.990898      2090.602     
   1820000   298.24731     -5.6033231      0              56.811541      2109.4628    
   1821000   300.92443     -4.2425846      0              58.732525      2045.9262    
   1822000   291.81991     -3.6500368      0              57.41975       2048.8019    
   1823000   300.36237     -5.1899251      0              57.667561      2040.7995    
   1824000   295.48774     -6.5799167      0              55.257446      2035.1691    
   1825000   298.21204     -3.5251346      0              58.882347      2220.0374    
   1826000   299.22659     -2.6999123      0              59.919886      2099.1625    
   1827000   302.00857     -4.0061816      0              59.195808      2104.1806    
   1828000   308.88326     -4.8148222      0              59.825849      2103.5243    
   1829000   304.10919     -4.9458758      0              58.695715      2077.3481    
   1830000   296.21869     -3.6845984      0              58.305731      2142.4466    
   1831000   305.46099     -5.1114375      0              58.813049      2107.8912    
   1832000   296.83706     -3.7399377      0              58.379799      2108.6372    
   1833000   305.49615     -4.7893105      0              59.142533      1952.1572    
   1834000   300.15336     -4.0906879      0              58.723058      2118.6893    
   1835000   287.37193     -3.7110226      0              56.427926      2099.2017    
   1836000   305.49121     -4.8208198      0              59.109989      2088.9125    
   1837000   299.79173     -4.2087859      0              58.529282      2136.8953    
   1838000   297.11602     -4.1751629      0              58.002953      2047.1504    
   1839000   299.94076     -5.0867121      0              57.682544      2074.1547    
   1840000   299.76806     -4.3832116      0              58.349903      2034.1141    
   1841000   300.05018     -3.3138346      0              59.478318      2109.5622    
   1842000   295.37023     -3.2051882      0              58.607583      2139.3147    
   1843000   294.1103      -3.5059922      0              58.043111      2070.1065    
   1844000   289.00951     -5.0096709      0              55.471978      2047.1854    
   1845000   310.52297     -4.0279278      0              60.955889      2207.5025    
   1846000   293.33003     -4.0429112      0              57.342901      2168.4139    
   1847000   298.91308     -3.61327        0              58.94092       2189.4942    
   1848000   304.20484     -5.0420629      0              58.619545      2081.8645    
   1849000   313.5054      -5.4681903      0              60.139766      2010.578     
   1850000   305.49168     -3.5923524      0              60.338555      2214.8817    
   1851000   284.97418     -4.8288014      0              54.808365      2068.8293    
   1852000   306.4101      -5.2143084      0              58.9088        2202.9835    
   1853000   302.99767     -5.9167426      0              57.492239      2119.7105    
   1854000   304.0424      -5.2840819      0              58.343533      2053.7486    
   1855000   295.04386     -5.1876526      0              56.556819      2084.358     
   1856000   302.32687     -3.7124136      0              59.556188      2126.0412    
   1857000   297.53898     -4.5607814      0              57.705848      2126.0573    
   1858000   298.50536     -3.9395679      0              58.529299      2163.1296    
   1859000   318.09582     -4.1100202      0              62.458584      2036.4053    
   1860000   297.85248     -4.2506293      0              58.081606      2075.5945    
   1861000   288.91858     -4.147461       0              56.315158      2034.9675    
   1862000   311.84201     -2.6824944      0              62.57736       2165.1205    
   1863000   303.92701     -4.5504202      0              59.053047      2088.0319    
   1864000   303.68531     -5.734049       0              57.818837      2073.2855    
   1865000   296.59323     -4.387121       0              57.681589      2104.1936    
   1866000   292.48409     -4.2636985      0              56.945084      1998.2634    
   1867000   293.44029     -5.1744141      0              56.234474      2090.1457    
   1868000   300.99224     -5.0369552      0              57.952345      2108.1925    
   1869000   296.97614     -4.147785       0              58.001058      2149.8476    
   1870000   310.53969     -4.6363125      0              60.351003      2138.5482    
   1871000   292.05621     -4.9260136      0              56.193225      2049.494     
   1872000   298.92033     -5.2033729      0              57.352335      2014.8507    
   1873000   295.2578      -5.1180909      0              56.671152      2038.2937    
   1874000   300.3276      -4.0602372      0              58.789972      2178.5581    
   1875000   308.49225     -5.0930688      0              59.465775      2053.3474    
   1876000   299.62543     -4.8859343      0              57.817332      2086.5563    
   1877000   295.52021     -4.8830442      0              56.961113      2115.0554    
   1878000   307.18481     -4.0022913      0              60.282941      2071.5245    
   1879000   302.77274     -3.0624212      0              60.299488      2178.3924    
   1880000   291.32527     -3.7788473      0              57.187425      2009.9232    
   1881000   299.25618     -4.5596962      0              58.066296      2050.3281    
   1882000   297.1562      -4.3160864      0              57.870437      2028.2045    
   1883000   297.237       -4.5930558      0              57.610378      2116.7567    
   1884000   295.93479     -4.0802027      0              57.850714      2105.999     
   1885000   292.5619      -4.2144597      0              57.010606      2194.2282    
   1886000   294.98066     -3.2844491      0              58.446796      2090.8234    
   1887000   297.47616     -4.1720158      0              58.081468      2120.5413    
   1888000   287.66352     -4.3854741      0              55.814497      2157.2348    
   1889000   297.52148     -4.3394618      0              57.923504      2080.7119    
   1890000   297.2877      -4.0974603      0              58.116584      2093.7316    
   1891000   296.8433      -5.8761239      0              56.244919      2040.3068    
   1892000   286.87428     -4.9584775      0              55.076327      2095.0629    
   1893000   303.2565      -4.4627271      0              59.00042       2162.9393    
   1894000   308.33214     -5.1689858      0              59.356351      2059.1987    
   1895000   295.19589     -4.897231       0              56.879055      1963.19      
   1896000   294.04929     -3.7473803      0              57.788953      2148.2061    
   1897000   305.43545     -4.8506207      0              59.06852       2092.036     
   1898000   303.29467     -3.5784202      0              59.892715      2067.0456    
   1899000   296.45516     -3.5209003      0              58.518915      2054.0657    
   1900000   289.4013      -3.9634555      0              56.600185      2166.3648    
   1901000   301.06378     -5.2139433      0              57.790329      2076.9394    
   1902000   307.16019     -5.1631018      0              59.11698       2021.9733    
   1903000   296.03878     -5.7604987      0              56.192181      1956.2743    
   1904000   299.27857     -5.742736       0              56.887942      2139.348     
   1905000   298.51602     -5.7591176      0              56.711979      2059.5968    
   1906000   298.04534     -4.8383974      0              57.534199      2196.4709    
   1907000   297.30408     -4.869834       0              57.347636      2112.503     
   1908000   303.73053     -5.4039473      0              58.158401      2031.6555    
   1909000   298.44524     -3.9179519      0              58.538333      2187.0424    
   1910000   303.48401     -4.1864632      0              59.324295      2090.3935    
   1911000   312.99184     -6.6119138      0              58.888568      2118.9971    
   1912000   304.28893     -6.1993265      0              57.47988       1981.8153    
   1913000   298.82149     -4.2727722      0              58.262251      2048.6717    
   1914000   289.75132     -3.6998798      0              56.937009      2123.0627    
   1915000   301.39643     -3.8571185      0              59.216768      2117.1519    
   1916000   305.26713     -3.5759917      0              60.307925      2112.2015    
   1917000   294.14448     -5.9894495      0              55.566805      2063.3317    
   1918000   305.69804     -4.7104956      0              59.263598      2126.3528    
   1919000   311.88872     -3.6026537      0              61.666976      2208.9851    
   1920000   305.76145     -4.702487       0              59.284877      2165.3899    
   1921000   303.07895     -5.1080703      0              58.317921      2081.0045    
   1922000   296.74466     -5.0876998      0              57.012701      2110.844     
   1923000   294.8121      -5.9774288      0              55.71854       1923.6498    
   1924000   301.56075     -4.8229679      0              58.285305      2112.4849    
   1925000   309.7848      -3.1750178      0              61.654321      2059.3041    
   1926000   311.44179     -4.8302974      0              60.345803      2079.1327    
   1927000   293.32536     -4.7291689      0              56.655667      2027.9299    
   1928000   303.42018     -4.7248085      0              58.772593      2200.6906    
   1929000   300.24528     -4.9542096      0              57.878773      2114.2792    
   1930000   306.62229     -3.4250272      0              60.742487      2240.1057    
   1931000   293.69756     -4.6412735      0              56.821454      2141.9328    
   1932000   307.07826     -5.8913729      0              58.371561      1989.1136    
   1933000   296.41988     -4.8595642      0              57.172869      2085.124     
   1934000   302.47284     -4.9376884      0              58.36146       2088.7311    
   1935000   292.9729      -5.6950009      0              55.616076      2024.7589    
   1936000   297.65041     -5.7286859      0              56.561263      1940.1434    
   1937000   290.51116     -3.6597886      0              57.136114      2118.3762    
   1938000   293.57493     -4.9995959      0              56.437467      2119.6452    
   1939000   296.37269     -4.4288745      0              57.593684      2150.7013    
   1940000   296.51992     -5.8602443      0              56.193124      2062.698     
   1941000   302.70399     -3.7591363      0              59.588385      2151.6709    
   1942000   298.13849     -4.7624689      0              57.629622      2050.9362    
   1943000   298.44301     -4.8474609      0              57.608356      2038.2191    
   1944000   293.99133     -4.9818452      0              56.54236       1986.4137    
   1945000   293.34663     -5.2729264      0              56.116361      2158.4729    
   1946000   302.36874     -3.7400795      0              59.537285      2012.4065    
   1947000   293.26409     -4.2635062      0              57.108508      2112.6569    
   1948000   300.64539     -2.9942868      0              59.922428      2166.3327    
   1949000   288.12735     -5.600783       0              54.696255      2041.4931    
   1950000   300.08762     -5.1641049      0              57.635884      2069.949     
   1951000   291.60231     -4.310332       0              56.713917      2063.8511    
   1952000   291.84379     -3.9452352      0              57.129549      2162.4145    
   1953000   292.95351     -3.2350711      0              58.071946      2063.7942    
   1954000   299.3099      -3.9241948      0              58.713038      2120.5807    
   1955000   299.6858      -3.5142659      0              59.201634      2021.1867    
   1956000   300.76728     -3.5539943      0              59.388229      2097.0995    
   1957000   308.62354     -6.9511952      0              57.635125      1965.1079    
   1958000   300.46347     -3.6197604      0              59.258883      2125.9092    
   1959000   290.82364     -5.5188863      0              55.34241       2088.2742    
   1960000   291.5499      -5.3632723      0              55.650009      2090.6244    
   1961000   301.04361     -4.3318673      0              58.668184      2114.7857    
   1962000   289.68365     -3.5711448      0              57.051583      2118.9582    
   1963000   302.36443     -5.6476965      0              57.628765      2062.4823    
   1964000   294.88707     -4.1111267      0              57.600532      2155.3652    
   1965000   293.54727     -3.876157       0              57.555118      2100.5777    
   1966000   302.7923      -4.7360446      0              58.62996       2017.2117    
   1967000   301.06044     -5.6282375      0              57.375336      2093.7683    
   1968000   296.76679     -4.6286858      0              57.476345      2008.4659    
   1969000   312.38281     -3.7648978      0              61.608132      2151.8657    
   1970000   314.61999     -3.4983787      0              62.342831      2225.2123    
   1971000   298.38032     -4.1569257      0              58.285772      2070.13      
   1972000   296.20304     -4.4167125      0              57.570341      2014.7444    
   1973000   311.45255     -5.3968347      0              59.781519      1924.1198    
   1974000   302.63298     -4.6286901      0              58.703973      2059.9646    
   1975000   301.42805     -7.1597247      0              55.920778      2062.3082    
   1976000   297.50381     -5.5161682      0              56.743101      1974.0276    
   1977000   293.16205     -4.735016       0              56.615644      2108.1191    
   1978000   295.67719     -4.320534       0              57.556475      2117.2845    
   1979000   299.69263     -4.2570134      0              58.460315      2135.1498    
   1980000   305.73873     -5.548583       0              58.434027      2070.1881    
   1981000   309.30973     -5.1672564      0              59.562663      2041.7314    
   1982000   310.24436     -4.8897313      0              60.03578       2121.8265    
   1983000   304.61851     -4.6398961      0              59.108283      2088.1485    
   1984000   302.48318     -4.7503223      0              58.550991      2075.8976    
   1985000   298.74216     -4.3942874      0              58.124133      1945.9539    
   1986000   300.7004      -4.2251803      0              58.703046      2266.9203    
   1987000   293.74948     -5.9591452      0              55.514448      1949.8848    
   1988000   303.93702     -4.3075548      0              59.298005      2118.6474    
   1989000   292.95005     -5.6091009      0              55.697194      2114.7785    
   1990000   300.88643     -4.758693       0              58.208465      2104.4062    
   1991000   311.75115     -4.9499057      0              60.290936      2090.6793    
   1992000   299.75369     -3.4843693      0              59.245738      2085.5235    
   1993000   295.84334     -3.3587736      0              58.553005      2171.0396    
   1994000   304.03445     -4.6317342      0              58.994216      2089.2748    
   1995000   298.67364     -3.4878179      0              59.016263      2165.3833    
   1996000   302.38193     -5.8484413      0              57.431682      2058.8562    
   1997000   303.51173     -4.4994421      0              59.017117      2084.7413    
   1998000   301.51037     -2.3876279      0              60.710104      2190.3362    
   1999000   300.22616     -4.6236188      0              58.205364      2061.2074    
   2000000   304.3399      -3.8705632      0              59.819309      2099.9887    
   2000101   298.379       -5.3529394      0              57.089482      2000.31      
Loop time of 11947.1 on 16 procs for 2000000 steps with 1620 atoms

Performance: 7.232 ns/day, 3.319 hours/ns, 167.404 timesteps/s
99.7% CPU use with 16 MPI tasks x 1 OpenMP threads

MPI task timing breakdown:
Section |  min time  |  avg time  |  max time  |%varavg| %total
---------------------------------------------------------------
Pair    | 9250       | 9933       | 11334      | 541.8 | 83.14
Bond    | 0.97475    | 1.0126     | 1.0939     |   2.5 |  0.01
Neigh   | 14.537     | 14.898     | 15.359     |   7.5 |  0.12
Comm    | 553.05     | 1954.6     | 2638.9     |1223.0 | 16.36
Output  | 1.0769     | 1.0774     | 1.0787     |   0.0 |  0.01
Modify  | 23.868     | 24.977     | 25.718     |  11.7 |  0.21
Other   |            | 17.58      |            |       |  0.15

Nlocal:         101.25 ave         109 max          90 min
Histogram: 1 0 0 1 3 2 5 2 1 1
Nghost:        5090.75 ave        5159 max        5048 min
Histogram: 1 5 0 2 4 2 0 1 0 1
Neighs:        51688.9 ave       57649 max       46873 min
Histogram: 3 1 2 2 0 3 0 3 0 2

Total # of neighbors = 827022
Ave neighs/atom = 510.50741
Ave special neighs/atom = 0
Neighbor list builds = 10382
Dangerous builds = 0
comm_modify cutoff 27.58
compute myRDF all rdf 1129 cutoff 22.58
fix 2 all ave/time 1 1 1 c_myRDF[*] file ljg2_nvt_46rdf.rdf mode vector
run 0 pre yes post no
Generated 0 of 0 mixed pair_coeff terms from geometric mixing rule
WARNING: Compute rdf cutoff less than neighbor cutoff - forcing a needless neighbor list build (src/compute_rdf.cpp:179)
Neighbor list info ...
  update every 1 steps, delay 0 steps, check yes
  max neighbors/atom: 200000, page size: 2000000000
  master list distance cutoff = 27
  ghost atom cutoff = 27.58
  binsize = 13.5, bins = 4 5 4
  4 neighbor lists, perpetual/occasional/extra = 3 1 0
  (1) pair lj/cut, perpetual
      attributes: half, newton on
      pair build: half/bin/newton
      stencil: half/bin/3d
      bin: standard
  (2) pair gauss/cut, perpetual, copy from (1)
      attributes: half, newton on
      pair build: copy
      stencil: none
      bin: none
  (3) pair gauss/cut, perpetual, copy from (1)
      attributes: half, newton on
      pair build: copy
      stencil: none
      bin: none
  (4) compute rdf, occasional
      attributes: half, newton on, cut 24.58
      pair build: half/bin/newton
      stencil: half/bin/3d
      bin: standard
Per MPI rank memory allocation (min/avg/max) = 3.053e+04 | 3.053e+04 | 3.053e+04 Mbytes
   Step          Temp          E_pair         E_mol          TotEng         Press     
   2000101   298.379       -5.3529394      0              57.089482      2000.31      
Loop time of 1.15352e-05 on 16 procs for 0 steps with 1620 atoms

uncompute myRDF
unfix 2
write_data ljg2_nvt_46/ca_md.data nocoeff nofix
System init for write_data ...
Generated 0 of 0 mixed pair_coeff terms from geometric mixing rule
Neighbor list info ...
  update every 1 steps, delay 0 steps, check yes
  max neighbors/atom: 200000, page size: 2000000000
  master list distance cutoff = 27
  ghost atom cutoff = 27.58
  binsize = 13.5, bins = 4 5 4
  3 neighbor lists, perpetual/occasional/extra = 3 0 0
  (1) pair lj/cut, perpetual
      attributes: half, newton on
      pair build: half/bin/newton
      stencil: half/bin/3d
      bin: standard
  (2) pair gauss/cut, perpetual, copy from (1)
      attributes: half, newton on
      pair build: copy
      stencil: none
      bin: none
  (3) pair gauss/cut, perpetual, copy from (1)
      attributes: half, newton on
      pair build: copy
      stencil: none
      bin: none
Total wall time: 3:19:08
