region box block 0 52.794504272175 0 54.794296100667 0 45.195295323908
units metal
dimension 3
boundary p p p
atom_style full
create_box 1 box
Created orthogonal box = (0 0 0) to (52.794504 54.794296 45.195295)
  2 by 4 by 2 MPI processor grid
create_atoms 1 random 1620 49 box
Created 1620 atoms
  using lattice units in orthogonal box = (0 0 0) to (52.794504 54.794296 45.195295)
  create_atoms CPU = 0.002 seconds
mass 1 40.078
pair_style hybrid/overlay lj/cut 25 gauss/cut 25 gauss/cut 25
pair_coeff 1 1 lj/cut 0.009507177838705264 3.7584971993521488
pair_coeff 1 1 gauss/cut 1 -0.0597999248039827 5.991246456844763 0.601172550524922
pair_coeff 1 1 gauss/cut 2 0.0726183915985775 5.919659952808235 0.9307156951487607
run 1
WARNING: No fixes with time integration, atoms won't move (src/verlet.cpp:60)
Generated 0 of 0 mixed pair_coeff terms from geometric mixing rule
Neighbor list info ...
  update every 1 steps, delay 10 steps, check yes
  max neighbors/atom: 2000, page size: 100000
  master list distance cutoff = 27
  ghost atom cutoff = 27
  binsize = 13.5, bins = 4 5 4
  3 neighbor lists, perpetual/occasional/extra = 3 0 0
  (1) pair lj/cut, perpetual
      attributes: half, newton on
      pair build: half/bin/newton
      stencil: half/bin/3d
      bin: standard
  (2) pair gauss/cut, perpetual, copy from (1)
      attributes: half, newton on
      pair build: copy
      stencil: none
      bin: none
  (3) pair gauss/cut, perpetual, copy from (1)
      attributes: half, newton on
      pair build: copy
      stencil: none
      bin: none
Per MPI rank memory allocation (min/avg/max) = 6.989 | 6.996 | 7.003 Mbytes
   Step          Temp          E_pair         E_mol          TotEng         Press     
         0   0              1.9144552e+11  0              1.9144552e+11  9.3842268e+12
         1   0              1.9144552e+11  0              1.9144552e+11  9.3842268e+12
Loop time of 0.00695533 on 16 procs for 1 steps with 1620 atoms

Performance: 12.422 ns/day, 1.932 hours/ns, 143.775 timesteps/s
99.7% CPU use with 16 MPI tasks x 1 OpenMP threads

MPI task timing breakdown:
Section |  min time  |  avg time  |  max time  |%varavg| %total
---------------------------------------------------------------
Pair    | 0.0046409  | 0.0053554  | 0.0066445  |   0.7 | 77.00
Bond    | 4.73e-07   | 5.3937e-07 | 6.9e-07    |   0.0 |  0.01
Neigh   | 0          | 0          | 0          |   0.0 |  0.00
Comm    | 0.00021261 | 0.0015022  | 0.0022153  |   1.4 | 21.60
Output  | 5.7587e-05 | 5.851e-05  | 5.9449e-05 |   0.0 |  0.84
Modify  | 9.15e-07   | 1.0454e-06 | 1.276e-06  |   0.0 |  0.02
Other   |            | 3.759e-05  |            |       |  0.54

Nlocal:         101.25 ave         120 max          83 min
Histogram: 1 1 2 2 2 2 3 2 0 1
Nghost:        5063.56 ave        5138 max        4988 min
Histogram: 2 0 1 1 4 3 1 3 0 1
Neighs:          51643 ave       66407 max       44198 min
Histogram: 3 3 1 5 1 0 0 2 0 1

Total # of neighbors = 826288
Ave neighs/atom = 510.05432
Ave special neighs/atom = 0
Neighbor list builds = 0
Dangerous builds = 0
thermo 1000
neighbor 2.0 bin
neigh_modify every 1 delay 0 check yes one 200000 page 2000000000
minimize 0.0 1.0e-8 100 1000
Generated 0 of 0 mixed pair_coeff terms from geometric mixing rule
Neighbor list info ...
  update every 1 steps, delay 0 steps, check yes
  max neighbors/atom: 200000, page size: 2000000000
  master list distance cutoff = 27
  ghost atom cutoff = 27
  binsize = 13.5, bins = 4 5 4
  3 neighbor lists, perpetual/occasional/extra = 3 0 0
  (1) pair lj/cut, perpetual
      attributes: half, newton on
      pair build: half/bin/newton
      stencil: half/bin/3d
      bin: standard
  (2) pair gauss/cut, perpetual, copy from (1)
      attributes: half, newton on
      pair build: copy
      stencil: none
      bin: none
  (3) pair gauss/cut, perpetual, copy from (1)
      attributes: half, newton on
      pair build: copy
      stencil: none
      bin: none
Per MPI rank memory allocation (min/avg/max) = 2.29e+04 | 2.29e+04 | 2.29e+04 Mbytes
   Step          Temp          E_pair         E_mol          TotEng         Press     
         1   0              1.9144552e+11  0              1.9144552e+11  9.3842268e+12
       101   0             -49.106156      0             -49.106156      738.60678    
Loop time of 0.760561 on 16 procs for 100 steps with 1620 atoms

99.7% CPU use with 16 MPI tasks x 1 OpenMP threads

Minimization stats:
  Stopping criterion = max iterations
  Energy initial, next-to-last, final = 
      191445521838.344   -48.901288488582  -49.1061558673886
  Force two-norm initial, final = 5.4358683e+12 0.44701503
  Force max component initial, final = 2.6913359e+12 0.049177877
  Final line search alpha, max atom move = 1 0.049177877
  Iterations, force evaluations = 100 112

MPI task timing breakdown:
Section |  min time  |  avg time  |  max time  |%varavg| %total
---------------------------------------------------------------
Pair    | 0.49926    | 0.58809    | 0.71947    |   8.1 | 77.32
Bond    | 4.98e-05   | 5.1959e-05 | 5.7519e-05 |   0.0 |  0.01
Neigh   | 0.0063168  | 0.0074063  | 0.0088553  |   0.7 |  0.97
Comm    | 0.028975   | 0.16176    | 0.25149    |  15.6 | 21.27
Output  | 4.3355e-05 | 4.4026e-05 | 4.4833e-05 |   0.0 |  0.01
Modify  | 0          | 0          | 0          |   0.0 |  0.00
Other   |            | 0.003206   |            |       |  0.42

Nlocal:         101.25 ave         115 max          85 min
Histogram: 1 0 2 2 2 3 1 1 2 2
Nghost:        5057.94 ave        5115 max        4979 min
Histogram: 1 1 1 2 2 1 3 0 1 4
Neighs:        51639.2 ave       61855 max       44530 min
Histogram: 2 4 2 0 3 2 0 0 1 2

Total # of neighbors = 826227
Ave neighs/atom = 510.01667
Ave special neighs/atom = 0
Neighbor list builds = 6
Dangerous builds = 0
timestep 0.0005
fix 1 all nvt temp 300.0 300.0 $(100.0*dt)
fix 1 all nvt temp 300.0 300.0 0.050000000000000002776
fix removeMomentum all momentum 1 linear 1 1 1
dump 1 all custom 1000 ljg2_nvt_49/ca.traj id mol type mass x y z
dump_modify 1 sort id
run 2000000
Generated 0 of 0 mixed pair_coeff terms from geometric mixing rule
Per MPI rank memory allocation (min/avg/max) = 2.289e+04 | 2.289e+04 | 2.289e+04 Mbytes
   Step          Temp          E_pair         E_mol          TotEng         Press     
       101   0             -49.106156      0             -49.106156      738.60678    
      1000   154.02935     -45.26327       0             -13.029213      1166.2621    
      2000   291.86523     -11.372231      0              49.70704       1858.3354    
      3000   290.67493     -6.2148695      0              54.615305      1979.7971    
      4000   307.21993     -6.1291118      0              58.163471      2072.9366    
      5000   296.36198     -7.3147325      0              54.705584      1913.4662    
      6000   302.94694     -5.2766739      0              58.121691      2084.1734    
      7000   303.68032     -5.8214277      0              57.730414      2064.1471    
      8000   308.16082     -5.1971836      0              59.292301      2068.8649    
      9000   306.02179     -4.7069495      0              59.334896      2123.6384    
     10000   309.35937     -5.1049448      0              59.635364      2108.4307    
     11000   298.2999      -5.9264176      0              56.49945       2074.8845    
     12000   305.80502     -5.7468928      0              58.249589      2082.8055    
     13000   301.51091     -4.2125027      0              58.885342      2170.234     
     14000   298.80716     -6.2763399      0              56.255684      1992.7162    
     15000   305.47747     -5.7969         0              58.131035      2095.9779    
     16000   291.69931     -4.1022295      0              56.942318      2091.0613    
     17000   299.66165     -6.0657612      0              56.645085      1999.2966    
     18000   291.92317     -3.7656082      0              57.325788      2160.8636    
     19000   303.61695     -4.3545824      0              59.183997      2136.9965    
     20000   298.23293     -5.9358887      0              56.475964      2067.9548    
     21000   299.01529     -3.2157525      0              59.359828      2069.5168    
     22000   299.83069     -3.1517362      0              59.594485      2232.7041    
     23000   287.59054     -3.9487387      0              56.235959      2049.9549    
     24000   304.29016     -7.0201639      0              56.659299      2091.3253    
     25000   297.3622      -4.0277046      0              58.201929      2150.3972    
     26000   292.26936     -4.1868539      0              56.976992      2119.2302    
     27000   312.69129     -5.0522783      0              60.385308      2107.9065    
     28000   306.74458     -4.7271751      0              59.465929      2204.4688    
     29000   311.23279     -5.5324398      0              59.599923      2115.9301    
     30000   306.58019     -3.6639972      0              60.494706      2109.3727    
     31000   297.18298     -5.3227468      0              56.869382      2017.8309    
     32000   298.08233     -4.8559367      0              57.524401      2141.8515    
     33000   300.4387      -4.5998592      0              58.273602      2080.7233    
     34000   299.68881     -5.6065428      0              57.109986      2005.2041    
     35000   305.36983     -5.8600685      0              58.04534       2020.7542    
     36000   304.70969     -3.8061326      0              59.961126      2067.5402    
     37000   309.20379     -4.5330349      0              60.174716      2147.7845    
     38000   298.37786     -4.4754409      0              57.966742      2039.2378    
     39000   306.60479     -5.4854312      0              58.678421      2021.4217    
     40000   293.12845     -2.70799        0              58.635637      2023.3943    
     41000   304.47489     -5.0933234      0              58.624799      2117.3574    
     42000   290.67811     -6.275452       0              54.555388      2133.8196    
     43000   289.75786     -3.3083886      0              57.329869      2136.8121    
     44000   304.46132     -4.6041102      0              59.111171      2110.3275    
     45000   301.74137     -4.7052204      0              58.440852      2117.924     
     46000   298.44032     -4.516328       0              57.938927      2154.2444    
     47000   308.10284     -5.6510738      0              58.826278      2014.749     
     48000   295.62482     -5.7026747      0              56.163375      2072.3364    
     49000   305.48965     -4.5185449      0              59.411938      2138.5256    
     50000   311.17249     -4.094463       0              61.025282      2164.4715    
     51000   295.82039     -4.9682854      0              56.938691      2149.0055    
     52000   296.98787     -4.5379146      0              57.613383      2124.3075    
     53000   300.84383     -5.4316949      0              57.526548      2139.214     
     54000   299.54432     -3.0408703      0              59.645422      2162.8207    
     55000   298.42475     -3.7173702      0              58.734626      2134.0841    
     56000   302.70777     -4.9404433      0              58.40787       2098.0852    
     57000   287.20283     -6.5123614      0              53.591199      2024.9948    
     58000   293.38581     -5.8734493      0              55.524037      2022.0602    
     59000   304.46669     -5.628979       0              58.087428      2056.8027    
     60000   309.17973     -3.7189459      0              60.983768      2097.6266    
     61000   306.28314     -4.8182588      0              59.278279      2112.2554    
     62000   301.71559     -6.260216       0              56.880461      1984.7836    
     63000   299.15451     -5.3488773      0              57.255837      2127.3948    
     64000   309.0176      -3.9877421      0              60.681044      2143.4815    
     65000   299.82215     -3.8643399      0              58.880094      2141.9482    
     66000   298.96511     -4.5235906      0              58.041489      2087.6008    
     67000   298.13025     -4.5029668      0              57.887399      2069.0561    
     68000   294.57852     -3.8675041      0              57.779584      2013.5839    
     69000   293.40808     -3.5242514      0              57.877896      2218.4667    
     70000   305.41316     -4.8476739      0              59.066802      2166.7853    
     71000   300.85292     -3.1900953      0              59.770049      2121.8426    
     72000   290.14342     -4.1239054      0              56.595038      2045.7037    
     73000   297.08573     -5.8518593      0              56.319917      1988.6309    
     74000   304.05045     -5.3286562      0              58.300644      2022.1825    
     75000   297.57538     -3.8836056      0              58.390641      2171.2775    
     76000   304.15411     -4.2294226      0              59.421569      2128.5073    
     77000   295.96573     -5.1551354      0              56.782256      2102.3568    
     78000   300.99457     -3.2973117      0              59.692476      2076.2074    
     79000   296.67593     -2.963216       0              59.1228        2211.6388    
     80000   303.19734     -4.2158506      0              59.234916      2129.9026    
     81000   303.8777      -4.327655       0              59.265492      2126.4271    
     82000   289.62918     -4.7912807      0              55.820048      2031.1635    
     83000   302.75302     -5.0109065      0              58.346876      1991.124     
     84000   293.91045     -3.4433298      0              58.06395       2175.5261    
     85000   298.97965     -4.2971419      0              58.270979      2053.2782    
     86000   308.66502     -4.7746353      0              59.820366      2050.9909    
     87000   291.52473     -3.823621       0              57.184394      2279.3068    
     88000   310.58897     -4.6785147      0              60.319115      2014.8762    
     89000   291.60949     -4.5761199      0              56.449631      2079.9334    
     90000   306.38403     -3.9351037      0              60.182549      2177.5825    
     91000   308.39156     -5.331124       0              59.206649      2045.2699    
     92000   289.64061     -4.8136039      0              55.800117      2126.5338    
     93000   297.4297      -4.4866705      0              57.75709       2045.429     
     94000   301.27359     -3.2478819      0              59.800298      2122.7595    
     95000   299.36572     -5.7801313      0              56.868785      1976.2       
     96000   303.95773     -4.2086518      0              59.401243      2201.7264    
     97000   288.62985     -4.6740797      0              55.728118      2076.6904    
     98000   303.00818     -4.8637959      0              58.547386      2146.9762    
     99000   312.33197     -4.4627148      0              60.899675      2098.7387    
    100000   315.83101     -4.186209       0              61.908433      2098.2135    
    101000   296.60439     -5.4054346      0              56.665611      2064.34      
    102000   297.3203      -3.6780538      0              58.542812      2089.9097    
    103000   294.71695     -6.0273258      0              55.648731      2051.9158    
    104000   298.73555     -3.3445745      0              59.172464      2122.2082    
    105000   293.18341     -3.6729435      0              57.682186      2162.1495    
    106000   307.44301     -4.6841929      0              59.655074      2112.0837    
    107000   301.7063      -5.2620819      0              57.876651      2010.647     
    108000   290.44597     -4.14592        0              56.63634       2038.2367    
    109000   295.22501     -5.5701096      0              56.212271      2079.1523    
    110000   301.74647     -5.0621367      0              58.085004      2123.6022    
    111000   301.30136     -6.6386585      0              56.415331      2025.2769    
    112000   316.35959     -4.0772589      0              62.128001      2155.508     
    113000   304.76775     -5.1232642      0              58.656146      2087.7987    
    114000   299.22752     -3.8818763      0              58.738118      2039.5332    
    115000   298.16253     -3.3050876      0              59.092034      2246.3647    
    116000   306.84728     -4.1613518      0              60.053246      2087.8681    
    117000   304.20998     -4.6486546      0              59.014029      2200.3776    
    118000   303.02603     -4.9446674      0              58.470249      2132.7722    
    119000   307.10767     -3.828474       0              60.440615      2101.1441    
    120000   289.92733     -5.4842821      0              55.189441      2112.3055    
    121000   299.46633     -4.863986       0              57.805984      2207.2525    
    122000   300.09862     -3.7846966      0              59.017593      2037.4758    
    123000   296.28185     -4.7468759      0              57.256672      2113.6785    
    124000   290.85627     -6.4540647      0              54.41406       1990.3736    
    125000   294.02803     -6.0759627      0              55.455922      2066.0136    
    126000   290.69265     -6.0215674      0              54.812315      2049.1474    
    127000   300.15831     -6.0795771      0              56.735206      2089.509     
    128000   312.61993     -5.3518635      0              60.070789      2123.666     
    129000   310.42592     -5.3577729      0              59.605735      2083.9743    
    130000   295.19437     -3.9547781      0              57.82119       2124.637     
    131000   299.28537     -2.2919037      0              60.340196      2208.3625    
    132000   294.20433     -4.6756642      0              56.893115      2036.6521    
    133000   294.3492      -2.9480607      0              58.651037      2175.6566    
    134000   300.98205     -2.4977269      0              60.489441      2108.1987    
    135000   307.88126     -4.0101985      0              60.420781      2141.8372    
    136000   302.43462     -4.5638169      0              58.727334      2179.2685    
    137000   295.51101     -4.674938       0              57.167294      2019.1798    
    138000   300.24647     -3.9521557      0              58.881076      2105.7415    
    139000   301.77762     -3.3593774      0              59.794282      2072.1832    
    140000   304.94507     -3.2619253      0              60.554593      2229.4019    
    141000   304.78809     -5.419667       0              58.364         2070.3204    
    142000   297.95777     -3.9905568      0              58.363714      2155.2701    
    143000   304.86819     -6.6758026      0              57.124627      2004.0347    
    144000   300.46875     -4.5885955      0              58.291154      2030.9429    
    145000   300.03413     -2.3044606      0              60.484334      2214.6208    
    146000   310.6009      -4.8203632      0              60.179762      2017.6653    
    147000   298.62263     -5.818303       0              56.675105      2021.0008    
    148000   300.81853     -4.4088787      0              58.544069      2071.7316    
    149000   306.37356     -3.5524881      0              60.562974      2058.0527    
    150000   302.97941     -1.5091293      0              61.896031      2263.3154    
    151000   297.9324      -5.6876896      0              56.661271      2120.3167    
    152000   299.77102     -5.0199083      0              57.713824      2005.6703    
    153000   312.73882     -3.9245778      0              61.522956      2158.8702    
    154000   287.88206     -5.4731289      0              54.772576      2029.6198    
    155000   299.71886     -5.7559343      0              56.966883      1984.7842    
    156000   300.82402     -4.7119148      0              58.242183      2090.6892    
    157000   295.08977     -3.9008469      0              57.853231      2101.9064    
    158000   304.20132     -3.7113665      0              59.949504      2121.1338    
    159000   294.81156     -5.7892442      0              55.906612      1986.1589    
    160000   296.063       -4.64427        0              57.313477      2113.0026    
    161000   303.1139      -4.873969       0              58.559337      2182.8289    
    162000   286.409       -5.2417519      0              54.695683      2072.9631    
    163000   305.5485      -5.2474306      0              58.695369      2055.1598    
    164000   298.97147     -5.3503512      0              57.216058      2034.0983    
    165000   301.35199     -5.5235978      0              57.540989      2003.41      
    166000   304.78239     -4.3820315      0              59.400443      2159.0584    
    167000   306.43182     -5.3484326      0              58.77922       2023.3856    
    168000   299.74782     -4.3841434      0              58.344735      2125.845     
    169000   288.72111     -4.6084377      0              55.812858      1994.6082    
    170000   296.99151     -4.1819654      0              57.970094      2088.1525    
    171000   309.75901     -3.1699324      0              61.65401       2234.5031    
    172000   287.32147     -3.1011982      0              57.02719       2198.0592    
    173000   295.43523     -4.3940916      0              57.432281      2083.9723    
    174000   291.4431      -3.1084345      0              57.882497      2118.6295    
    175000   301.03608     -3.2771343      0              59.721341      2138.3866    
    176000   297.91799     -4.9756848      0              57.37026       2079.5625    
    177000   308.25118     -4.719394       0              59.789001      2159.8927    
    178000   297.41991     -3.8474508      0              58.39426       2106.5325    
    179000   295.19985     -4.6012352      0              57.175879      1927.3734    
    180000   287.30321     -3.3682304      0              56.756338      2092.9327    
    181000   294.2606      -4.2203969      0              57.360159      2099.0046    
    182000   297.86781     -5.5812583      0              56.754185      1984.6771    
    183000   311.01834     -5.8557745      0              59.231709      2014.4237    
    184000   296.92897     -4.9510171      0              57.187955      2072.4606    
    185000   300.66204     -4.8069948      0              58.113205      2093.6909    
    186000   291.71086     -5.0136703      0              56.033295      2053.2017    
    187000   295.31997     -4.7297854      0              57.072468      2062.5839    
    188000   304.34648     -6.3171929      0              57.374057      1975.929     
    189000   302.52031     -4.307936       0              59.001147      2206.6363    
    190000   293.78325     -4.0946166      0              57.386043      2175.482     
    191000   296.27954     -5.3311524      0              56.67191       2128.9008    
    192000   290.05313     -4.2562584      0              56.443792      1985.1331    
    193000   295.37231     -5.0267445      0              56.786462      1931.7786    
    194000   296.65079     -3.9100152      0              58.170741      2053.6394    
    195000   307.88969     -3.4076003      0              61.025144      2059.6       
    196000   307.23108     -3.2158316      0              61.079085      2156.6181    
    197000   294.56587     -6.0830881      0              55.561352      1963.0333    
    198000   300.3552      -6.8129821      0              56.043004      2074.3454    
    199000   304.00355     -4.4802883      0              59.139196      2088.2041    
    200000   292.38115     -5.2801753      0              55.907063      2042.7786    
    201000   305.55543     -4.7223385      0              59.22191       2104.6858    
    202000   300.75112     -4.1585323      0              58.780309      2130.3402    
    203000   295.59882     -5.0460937      0              56.814515      2114.0008    
    204000   292.30553     -4.1632366      0              57.008178      2062.7422    
    205000   298.61905     -4.2853539      0              58.207304      2114.0665    
    206000   303.00425     -5.1623821      0              58.247977      2066.8745    
    207000   296.82926     -4.5515417      0              57.566563      2025.1134    
    208000   303.22003     -4.9692417      0              58.486273      2102.5509    
    209000   285.52345     -5.4053006      0              54.346812      2019.6614    
    210000   314.36702     -5.18415        0              60.604121      2117.2761    
    211000   298.77082     -3.9605474      0              58.563871      2093.1378    
    212000   291.58431     -3.7211719      0              57.29931       2225.6799    
    213000   306.3037      -3.9845909      0              60.116251      2206.6402    
    214000   308.23521     -4.9623088      0              59.542744      2036.7193    
    215000   306.97199     -4.5536724      0              59.687024      2150.5988    
    216000   299.14009     -4.2713288      0              58.330368      2105.8645    
    217000   307.43786     -6.9011682      0              57.437021      2061.2809    
    218000   299.31184     -4.5045944      0              58.133044      2126.8276    
    219000   303.54809     -5.1423928      0              58.381776      2048.3437    
    220000   299.18295     -3.7276833      0              58.882984      2120.3692    
    221000   295.97025     -4.5563034      0              57.382035      2154.61      
    222000   307.67048     -4.5502172      0              59.836654      2076.7035    
    223000   308.9231      -4.6404247      0              60.008584      2065.9325    
    224000   302.62278     -3.4432119      0              59.887315      2127.3868    
    225000   295.34978     -2.9692812      0              58.839211      2197.2791    
    226000   299.30436     -5.2189458      0              57.417129      2033.9963    
    227000   308.71714     -5.2677143      0              59.338193      2022.7224    
    228000   302.19025     -4.5234127      0              58.716597      2054.7472    
    229000   303.88922     -4.8874213      0              58.708136      2100.5198    
    230000   291.94866     -5.8003954      0              55.296336      2039.2296    
    231000   297.79497     -5.0850876      0              57.235113      2103.9092    
    232000   293.46437     -5.3313428      0              56.082585      2015.9771    
    233000   301.60684     -4.1958292      0              58.922091      2146.905     
    234000   304.97906     -2.6179855      0              61.205647      2219.2372    
    235000   307.69241     -4.8126706      0              59.578789      2102.1819    
    236000   308.54398     -4.0644071      0              60.505263      2138.8523    
    237000   304.58494     -4.3998289      0              59.341325      2141.7206    
    238000   295.98462     -5.0718654      0              56.869479      2134.0723    
    239000   295.03284     -4.0343666      0              57.707796      2136.5152    
    240000   306.72273     -4.9569243      0              59.231609      2111.0385    
    241000   296.20993     -4.0163116      0              57.972185      2145.5683    
    242000   303.13042     -4.4097914      0              59.026972      2032.3667    
    243000   297.72331     -3.4284693      0              58.876736      2154.0777    
    244000   298.87779     -4.0426316      0              58.504174      2096.8031    
    245000   297.6018      -5.0682415      0              57.211534      2111.5976    
    246000   297.61083     -5.7547941      0              56.526871      2014.4389    
    247000   292.64796     -3.4449847      0              57.798091      2078.3334    
    248000   298.60121     -5.0492936      0              57.439632      2103.7093    
    249000   292.26511     -4.7774979      0              56.385457      2107.6362    
    250000   305.26462     -5.4750955      0              58.408295      2077.6833    
    251000   300.47209     -3.5834758      0              59.296971      2160.2108    
    252000   291.06168     -3.634057       0              57.277053      2124.0526    
    253000   293.82519     -5.1844551      0              56.304981      2062.2574    
    254000   299.65855     -4.1164216      0              58.593775      2110.6621    
    255000   303.501       -5.1623238      0              58.351991      2161.7931    
    256000   301.99172     -4.6222147      0              58.576248      2189.9266    
    257000   295.4646      -4.656374       0              57.176146      2113.3798    
    258000   303.0384      -4.7118127      0              58.705693      2086.4426    
    259000   301.11594     -4.3265248      0              58.688663      2065.2379    
    260000   299.74339     -4.9792009      0              57.748749      2219.0683    
    261000   314.10262     -5.3475036      0              60.385435      2129.1968    
    262000   298.36161     -4.321984       0              58.116799      2030.1393    
    263000   299.34717     -4.1724932      0              58.47254       2143.3543    
    264000   295.46668     -3.3612258      0              58.471728      2046.1619    
    265000   303.79387     -3.4932675      0              60.082337      2163.0767    
    266000   301.50855     -4.6650664      0              58.432284      2133.4324    
    267000   301.89334     -5.644826       0              57.533049      2110.2087    
    268000   290.31807     -4.442352       0              56.313142      2132.8967    
    269000   304.11443     -6.3509928      0              57.291695      1986.7224    
    270000   299.50896     -5.5060523      0              57.172839      2019.1584    
    271000   313.60201     -4.1408092      0              61.487365      2080.8295    
    272000   296.925       -5.5921534      0              56.545988      2005.6442    
    273000   296.98602     -4.5817519      0              57.569158      2016.7444    
    274000   301.9666      -6.1465943      0              57.046612      2062.8031    
    275000   306.84944     -5.5143777      0              58.700671      2191.2426    
    276000   312.33847     -5.0374304      0              60.32632       2184.2819    
    277000   298.64199     -6.5888524      0              55.908605      2029.492     
    278000   299.03232     -4.6512304      0              57.927914      2087.0317    
    279000   292.79775     -3.772617       0              57.501805      2123.0056    
    280000   297.6959      -5.6002039      0              56.699266      1967.2265    
    281000   288.51954     -4.1971886      0              56.181923      2150.215     
    282000   299.35264     -3.7774289      0              58.868748      2033.6979    
    283000   302.26104     -4.4647555      0              58.79007       2008.7761    
    284000   296.57297     -5.4198559      0              56.644615      1970.1215    
    285000   295.22914     -4.0055493      0              57.777696      2071.2088    
    286000   296.80918     -5.3273319      0              56.78657       1992.9135    
    287000   305.63199     -5.1172517      0              58.84302       2033.7769    
    288000   285.10481     -5.3261335      0              54.338369      2007.7189    
    289000   304.40015     -2.8934517      0              60.80903       2152.1831    
    290000   293.37068     -3.7583281      0              57.635993      2137.5005    
    291000   305.82256     -4.9967934      0              59.003359      1962.8053    
    292000   299.32037     -4.6039774      0              58.035447      2065.0487    
    293000   303.80377     -3.4653896      0              60.112286      2066.9688    
    294000   290.45523     -4.917088       0              55.86711       1960.3688    
    295000   288.43569     -5.7557523      0              54.605813      1982.403     
    296000   305.56389     -5.9610443      0              57.984976      1979.4916    
    297000   297.5231      -4.462672       0              57.800634      2084.8382    
    298000   312.84152     -5.8708349      0              59.598191      2123.6107    
    299000   287.91028     -3.7220185      0              56.529591      2101.5294    
    300000   301.73048     -4.2781922      0              58.865601      2041.8876    
    301000   304.27028     -3.9807289      0              59.694574      2119.2752    
    302000   302.39307     -4.4005109      0              58.881944      2215.9278    
    303000   306.44526     -5.6456869      0              58.484779      2114.1259    
    304000   302.19562     -3.1324376      0              60.108697      2230.1224    
    305000   300.66355     -3.4090895      0              59.511425      2113.8387    
    306000   290.1353      -5.1529391      0              55.564306      2065.2214    
    307000   304.13437     -4.3407638      0              59.306098      2176.5965    
    308000   304.82432     -5.4783011      0              58.312947      2062.2393    
    309000   296.90923     -4.0157729      0              58.119067      2181.9683    
    310000   291.18262     -4.985367       0              55.951053      2003.2858    
    311000   305.21528     -3.1151272      0              60.757939      2180.8375    
    312000   305.36292     -4.6544747      0              59.249489      2114.8996    
    313000   311.24639     -4.1085302      0              61.026679      2102.8271    
    314000   300.78762     -3.7093961      0              59.237084      2195.896     
    315000   288.0582      -3.1188269      0              57.163739      2098.7269    
    316000   300.31732     -3.7650207      0              59.083037      2103.1527    
    317000   301.03517     -3.6309873      0              59.367297      2123.0842    
    318000   307.62183     -3.9795766      0              60.397113      2148.44      
    319000   302.4884      -4.9828592      0              58.319547      2207.0387    
    320000   299.63873     -4.6704027      0              58.035647      2066.5039    
    321000   294.49572     -5.5225795      0              56.10718       2064.1479    
    322000   304.51588     -4.0842931      0              59.642406      2156.2108    
    323000   291.21213     -4.9882391      0              55.954357      2053.538     
    324000   299.68649     -6.3005512      0              56.415493      2080.0936    
    325000   293.80152     -4.1980841      0              57.286399      2178.8696    
    326000   305.54062     -4.2145809      0              59.726569      2185.1067    
    327000   306.17987     -6.5769488      0              57.497979      2059.9932    
    328000   287.48956     -4.600008       0              55.563557      2111.0419    
    329000   297.184       -4.82062        0              57.371723      1965.1496    
    330000   293.9091      -4.5332722      0              56.973724      2007.176     
    331000   298.9387      -4.9151923      0              57.64436       2220.1308    
    332000   306.66007     -3.4363081      0              60.739112      2209.4639    
    333000   305.93303     -4.3707667      0              59.652503      2071.7107    
    334000   291.41972     -5.9371555      0              55.048882      1923.8695    
    335000   305.56501     -5.8412004      0              58.105053      2064.7558    
    336000   295.705       -5.3753121      0              56.507516      2065.8993    
    337000   292.95829     -5.0681917      0              56.239827      2038.1933    
    338000   293.81109     -4.1691184      0              57.317367      2104.8434    
    339000   296.08262     -4.2315067      0              57.730346      2059.7054    
    340000   301.34504     -4.0065156      0              59.056616      2111.2187    
    341000   295.71526     -4.7946162      0              57.09036       2094.4793    
    342000   292.59501     -5.45558        0              55.776413      2027.0212    
    343000   292.78524     -4.0151807      0              57.256623      2059.7868    
    344000   297.86802     -5.4742033      0              56.861286      1938.8811    
    345000   297.07641     -4.9550465      0              57.214779      2103.9202    
    346000   297.23822     -4.2959163      0              57.907773      2090.5201    
    347000   293.64203     -3.9741344      0              57.476971      2023.0682    
    348000   303.343       -3.6153617      0              59.865887      2122.0223    
    349000   303.68996     -4.6641771      0              58.889682      2079.947     
    350000   302.10551     -4.4708948      0              58.751383      2022.906     
    351000   289.25609     -3.6064065      0              56.926844      2013.2418    
    352000   302.84808     -5.9245485      0              57.453128      1978.3154    
    353000   304.68122     -4.0203443      0              59.740958      2032.5946    
    354000   302.29467     -3.195161       0              60.066703      2121.1369    
    355000   298.86715     -4.8107906      0              57.733788      2147.7743    
    356000   300.42553     -2.4886905      0              60.382015      2148.9283    
    357000   300.70806     -6.2524959      0              56.677333      1916.0973    
    358000   309.927       -5.8292554      0              59.029841      2066.0472    
    359000   296.81406     -5.5473674      0              56.567555      2038.6751    
    360000   298.67808     -3.9704868      0              58.534525      2079.9785    
    361000   305.11585     -4.9309026      0              58.921354      2021.2906    
    362000   301.43208     -4.2317174      0              58.84963       2094.8369    
    363000   297.73401     -3.6757853      0              58.631659      2146.4869    
    364000   305.13246     -4.5144409      0              59.341293      2086.3357    
    365000   302.45275     -3.8579194      0              59.437024      1986.747     
    366000   297.70448     -4.8829904      0              57.418273      2103.4475    
    367000   304.71294     -3.3855416      0              60.382399      2140.179     
    368000   302.39302     -4.7888651      0              58.49358       2046.9093    
    369000   299.45953     -5.5292292      0              57.139317      2084.2895    
    370000   297.56981     -4.8194234      0              57.453658      2081.8058    
    371000   305.97002     -4.8974627      0              59.133549      2108.1414    
    372000   306.1919      -3.9230024      0              60.154442      2224.2355    
    373000   298.28341     -4.062708       0              58.35971       2114.7535    
    374000   295.1219      -4.9631882      0              56.797613      2097.1468    
    375000   297.0133      -4.6698887      0              57.486731      2150.8857    
    376000   298.90579     -3.4113332      0              59.141331      2101.215     
    377000   309.20112     -3.1440787      0              61.563113      2283.501     
    378000   298.73547     -4.7622148      0              57.754807      2142.4806    
    379000   295.33384     -5.159542       0              56.645614      2110.8525    
    380000   306.47329     -6.0238604      0              58.112472      1996.2057    
    381000   297.38548     -2.3131959      0              59.921311      2099.9739    
    382000   311.52061     -3.9390248      0              61.253572      2044.8333    
    383000   301.35222     -2.904553       0              60.160082      2125.2417    
    384000   299.00247     -3.7200001      0              58.852898      2176.9087    
    385000   300.34309     -4.3461569      0              58.507295      2051.0814    
    386000   306.07992     -5.273127       0              58.780884      1991.4102    
    387000   299.87638     -3.1208218      0              59.634961      2238.3449    
    388000   300.57842     -4.3409437      0              58.561756      2121.1759    
    389000   308.26668     -4.4394174      0              60.072221      2045.2678    
    390000   294.28082     -3.2681363      0              58.316651      2087.469     
    391000   304.28958     -3.3317265      0              60.347616      2104.4752    
    392000   307.06968     -5.3453055      0              58.915834      2021.8542    
    393000   305.35092     -5.2130061      0              58.688446      2001.7867    
    394000   300.11822     -5.0776539      0              57.728739      2125.9005    
    395000   291.18611     -3.785573       0              57.151577      2108.4982    
    396000   304.60185     -4.975009       0              58.769682      2067.9453    
    397000   314.05306     -4.7220261      0              61.000541      2067.6482    
    398000   298.83276     -4.4793755      0              58.058005      2217.1625    
    399000   303.16134     -4.1230555      0              59.320178      2131.8193    
    400000   294.34988     -2.6108312      0              58.988407      2215.455     
    401000   303.4988      -3.7220705      0              59.791782      2043.6893    
    402000   298.4088      -4.6816818      0              57.766976      2144.1615    
    403000   292.01245     -4.9478115      0              56.162269      1994.7218    
    404000   293.83082     -5.7232282      0              55.767386      2102.9108    
    405000   299.37503     -6.531763       0              56.119101      2089.2904    
    406000   298.7053      -5.3579725      0              57.152734      2009.0085    
    407000   292.67655     -4.9037507      0              56.345308      2169.8722    
    408000   301.63279     -4.3265197      0              58.79683       2131.6187    
    409000   309.67592     -4.1327346      0              60.673819      2135.5653    
    410000   299.30601     -5.8597996      0              56.77662       2003.1309    
    411000   299.85133     -4.9480423      0              57.802498      2019.652     
    412000   297.52572     -3.613481       0              58.650373      2133.9289    
    413000   302.12255     -4.6630586      0              58.562785      2240.5454    
    414000   305.0381      -4.0040245      0              59.831963      2228.4449    
    415000   302.70516     -6.0363869      0              57.311379      1915.4485    
    416000   299.38626     -4.825693       0              57.827521      1988.9433    
    417000   306.39207     -4.9537711      0              59.165564      2195.8155    
    418000   299.94548     -4.119316       0              58.650927      2052.4627    
    419000   304.50124     -4.2292386      0              59.494397      2155.5876    
    420000   301.85802     -4.4752371      0              58.695247      2131.6684    
    421000   297.28811     -4.5642737      0              57.649855      2032.9276    
    422000   301.49765     -5.7042574      0              57.390812      2015.9955    
    423000   298.36931     -5.7415223      0              56.698872      2035.0411    
    424000   300.13085     -4.2034018      0              58.605634      2087.8067    
    425000   301.40124     -4.7747879      0              58.300104      2076.8085    
    426000   292.5882      -5.067272       0              56.163298      2049.8973    
    427000   301.14991     -4.8966494      0              58.125648      1969.6531    
    428000   295.94913     -4.4562027      0              57.477715      2066.3697    
    429000   311.38814     -4.5672588      0              60.597614      2123.9227    
    430000   306.90042     -6.2140906      0              58.011629      2013.8384    
    431000   298.27172     -4.1912651      0              58.228706      2097.6353    
    432000   296.63546     -3.8717842      0              58.205764      2047.1879    
    433000   305.56492     -2.6870069      0              61.259229      2160.9621    
    434000   302.63007     -4.3797891      0              58.952263      2053.794     
    435000   300.83108     -4.6411054      0              58.314469      2068.5399    
    436000   281.28134     -4.2056214      0              54.658736      2002.5298    
    437000   297.52912     -3.0238445      0              59.240722      2107.4186    
    438000   304.82941     -5.4812607      0              58.311052      2008.4892    
    439000   304.54604     -5.3586708      0              58.374342      2056.0441    
    440000   303.30533     -6.5309674      0              56.942398      2026.8764    
    441000   299.80195     -5.2838278      0              57.456378      2118.4265    
    442000   304.25172     -5.6561592      0              58.015259      2075.9555    
    443000   287.91216     -3.6124497      0              56.639555      2107.7627    
    444000   295.96674     -4.9168826      0              57.02072       2082.6331    
    445000   297.58612     -5.410312       0              56.866182      2074.6918    
    446000   298.72981     -4.742914       0              57.772922      2042.2394    
    447000   305.05931     -4.6524743      0              59.187951      2059.9074    
    448000   296.98196     -4.15872        0              57.991341      2120.8358    
    449000   304.91138     -3.7562936      0              60.053175      2266.1752    
    450000   284.04578     -4.8380028      0              54.604875      2029.3527    
    451000   303.72279     -6.2167964      0              57.343933      2036.4279    
    452000   296.16928     -5.4801893      0              56.499799      2103.8195    
    453000   301.50458     -5.2335983      0              57.862922      2131.2641    
    454000   299.73097     -5.1691023      0              57.55625       2106.7061    
    455000   308.31855     -5.7097583      0              58.812736      1945.0098    
    456000   295.08923     -4.2029787      0              57.550986      2081.617     
    457000   300.96677     -3.7071667      0              59.276803      2110.0771    
    458000   291.70929     -3.0024899      0              58.044149      2100.2014    
    459000   295.37209     -4.3181259      0              57.495035      2104.8293    
    460000   289.94166     -5.3810101      0              55.295711      2029.7622    
    461000   306.0597      -4.1699879      0              59.879791      2056.8794    
    462000   301.4697      -3.5077295      0              59.58149       2153.2453    
    463000   295.74283     -5.2713764      0              56.619369      2059.4355    
    464000   293.70055     -4.0921945      0              57.371158      2111.0393    
    465000   289.40447     -5.133057       0              55.431246      2098.6284    
    466000   304.39952     -4.436298       0              59.266051      2186.4394    
    467000   301.24619     -4.4196649      0              58.62278       2111.7983    
    468000   301.05903     -4.7129636      0              58.290314      2084.6762    
    469000   301.67234     -4.4415838      0              58.690042      2187.9125    
    470000   295.39038     -4.170051       0              57.646936      2043.5051    
    471000   295.00037     -4.6286949      0              57.106674      2097.2627    
    472000   296.80688     -3.7760655      0              58.337356      2193.3991    
    473000   302.01143     -6.1728853      0              57.029703      2143.2677    
    474000   296.44273     -3.8899584      0              58.147257      2116.0397    
    475000   300.3568      -5.8322542      0              57.024066      2111.4355    
    476000   305.73374     -4.8451607      0              59.136405      2161.4635    
    477000   302.65824     -3.2872764      0              60.050672      2021.7704    
    478000   296.08076     -4.9048064      0              57.056658      2079.7644    
    479000   307.1427      -2.9478986      0              61.328523      2263.7483    
    480000   302.90122     -2.9591507      0              60.429647      2106.4508    
    481000   302.98733     -4.6730537      0              58.733764      2026.0951    
    482000   302.42365     -2.5333977      0              60.755458      2064.0888    
    483000   307.93893     -3.2815403      0              61.16151       2166.038     
    484000   291.14642     -3.1902248      0              57.73862       2204.8747    
    485000   303.30568     -5.1158613      0              58.357578      2124.6467    
    486000   301.03949     -4.1091041      0              58.890086      2103.7666    
    487000   296.06948     -4.44017        0              57.518935      2143.7379    
    488000   297.21794     -3.296164       0              58.90328       2128.3432    
    489000   289.87076     -4.3930599      0              56.268825      2130.739     
    490000   304.72228     -4.4235068      0              59.346387      2073.4871    
    491000   304.09624     -4.2239443      0              59.414938      2165.2517    
    492000   298.32195     -4.4003519      0              58.030131      2136.4237    
    493000   295.90975     -5.1337975      0              56.79188       2039.9286    
    494000   299.76753     -4.6135244      0              58.119479      2048.586     
    495000   304.06303     -2.1328081      0              61.499124      2159.1498    
    496000   299.53217     -3.9817919      0              58.701957      2029.9723    
    497000   301.47525     -3.2814291      0              59.808951      2199.0427    
    498000   293.4948      -4.6537237      0              56.766572      1970.6517    
    499000   300.46435     -3.5906993      0              59.288128      2207.8866    
    500000   297.04134     -3.6201045      0              58.542384      2186.1316    
    501000   305.23544     -3.1228572      0              60.754427      2063.4361    
    502000   301.82636     -4.6724744      0              58.491384      2072.8655    
    503000   303.70259     -3.5811385      0              59.975363      2212.1735    
    504000   294.86541     -4.7241006      0              56.983025      2006.8128    
    505000   309.90394     -5.5883645      0              59.265908      2049.4518    
    506000   297.97722     -3.9775273      0              58.380813      2084.4905    
    507000   298.05246     -5.2160604      0              57.158026      1953.4142    
    508000   305.98346     -4.6884279      0              59.345396      2032.8332    
    509000   298.64015     -5.8405673      0              56.656507      2080.9551    
    510000   295.29927     -4.7863761      0              57.011545      2133.5695    
    511000   292.07954     -3.7933433      0              57.330778      2047.112     
    512000   300.8961      -4.216402       0              58.752778      2121.6602    
    513000   289.71702     -4.8900891      0              55.739621      2102.3937    
    514000   303.77733     -4.0171105      0              59.555032      2101.1248    
    515000   315.53891     -5.2351917      0              60.798323      2210.1298    
    516000   305.86285     -4.0680907      0              59.940492      2127.8573    
    517000   297.77955     -5.235773       0              57.081202      2192.4086    
    518000   299.9194      -4.2357219      0              58.529063      2121.1128    
    519000   298.1376      -3.8903357      0              58.501569      2142.3785    
    520000   296.61756     -4.4742358      0              57.599565      2002.1743    
    521000   305.43833     -6.2172048      0              57.702538      2069.4918    
    522000   298.63315     -3.7065329      0              58.789077      2105.729     
    523000   309.75634     -5.6117459      0              59.211636      1936.1972    
    524000   309.60615     -4.0029886      0              60.788964      2119.3839    
    525000   300.96864     -3.7850077      0              59.199355      2132.7141    
    526000   315.06136     -4.7074185      0              61.226158      2186.0063    
    527000   302.74436     -4.5319738      0              58.823996      2116.4892    
    528000   303.52086     -4.4445143      0              59.073956      2056.6125    
    529000   297.55449     -5.0691941      0              57.20068       2061.9737    
    530000   298.04008     -4.890474       0              57.481021      2094.7631    
    531000   298.57665     -4.0747902      0              58.408995      2128.9029    
    532000   300.26894     -4.5355844      0              58.302349      2149.7005    
    533000   298.07054     -3.4605327      0              58.917338      2112.0526    
    534000   293.32092     -3.4149884      0              57.968917      2126.6857    
    535000   301.47821     -5.2387965      0              57.852205      2037.1047    
    536000   295.67627     -5.2270888      0              56.649726      2057.5013    
    537000   301.24303     -4.9937395      0              58.048044      2068.3264    
    538000   302.93714     -3.4311858      0              59.965128      2085.9395    
    539000   293.87794     -5.1304368      0              56.370039      2027.8718    
    540000   299.31052     -4.7275332      0              57.90983       2137.6625    
    541000   294.72567     -6.1549418      0              55.52294       2005.3463    
    542000   299.60704     -4.5736742      0              58.125743      1991.6657    
    543000   303.42656     -3.4749714      0              60.023766      2106.0409    
    544000   293.62123     -4.0045206      0              57.442233      2047.8317    
    545000   302.04541     -4.7442977      0              58.465403      2124.5263    
    546000   296.13829     -4.1565955      0              57.816909      2029.4283    
    547000   297.82691     -4.6206655      0              57.706219      2060.9933    
    548000   297.90902     -5.2197828      0              57.124285      2077.9342    
    549000   293.33958     -6.1722602      0              55.215552      1924.98      
    550000   302.35244     -6.2834667      0              56.990487      2026.7037    
    551000   293.39322     -4.8184446      0              56.580592      2128.4706    
    552000   286.28011     -6.8311461      0              53.079315      2048.1572    
    553000   297.47999     -4.4912826      0              57.763003      2128.4237    
    554000   298.06623     -3.8780806      0              58.498888      2126.6755    
    555000   304.4303      -4.6589586      0              59.049833      2128.7222    
    556000   304.12751     -5.5907342      0              58.054692      2041.9117    
    557000   307.21378     -5.2043855      0              59.08691       2098.153     
    558000   295.71746     -4.8840522      0              57.001383      2020.5129    
    559000   299.75955     -4.5497911      0              58.181543      2124.8758    
    560000   294.40546     -3.8551636      0              57.755707      2093.1709    
    561000   285.83536     -4.92197        0              54.895417      2054.8987    
    562000   308.09541     -4.5675605      0              59.908235      2152.1195    
    563000   292.99256     -4.2983308      0              57.01686       1948.6197    
    564000   292.30938     -5.4813506      0              55.69087       2084.5057    
    565000   297.87822     -4.8633096      0              57.474313      2170.9509    
    566000   297.86639     -5.0129086      0              57.322238      2081.7672    
    567000   297.25787     -6.336753       0              55.871047      2019.3528    
    568000   312.86318     -5.0561446      0              60.417414      2130.5721    
    569000   307.15995     -4.754369       0              59.525661      2007.7885    
    570000   292.35902     -4.0927971      0              57.08981       2088.3576    
    571000   296.19827     -4.3717341      0              57.614322      2038.0366    
    572000   295.34912     -5.5915538      0              56.216799      2097.6251    
    573000   291.33942     -3.5940417      0              57.375193      2107.2141    
    574000   303.82793     -3.8279699      0              59.754761      2056.5581    
    575000   300.63427     -5.9076056      0              57.006783      2023.8811    
    576000   296.69764     -3.3065381      0              58.784022      2085.751     
    577000   294.87868     -5.8605881      0              55.849314      2054.4158    
    578000   302.66235     -5.8410915      0              57.497717      2064.3058    
    579000   299.21052     -5.5793098      0              57.037126      2036.0027    
    580000   292.00785     -4.8527742      0              56.256343      2030.5696    
    581000   300.27686     -6.3622582      0              56.477334      2088.8331    
    582000   299.34047     -5.6665911      0              56.977039      1994.6693    
    583000   302.19926     -5.8054081      0              57.436489      2105.3689    
    584000   299.9337      -4.1880094      0              58.579767      2120.4678    
    585000   296.29539     -5.5061789      0              56.500202      2063.8596    
    586000   310.41462     -3.3627895      0              61.598354      2254.6975    
    587000   294.09466     -4.8496153      0              56.696214      2110.6112    
    588000   293.82178     -2.2296254      0              59.259098      2169.3307    
    589000   295.24723     -5.6288591      0              56.15817       2096.8399    
    590000   301.48861     -5.6455651      0              57.447613      2111.8228    
    591000   310.13646     -6.3917744      0              58.511158      2038.0698    
    592000   293.96883     -4.3893205      0              57.130176      2049.2207    
    593000   302.59276     -3.746991       0              59.577254      2140.0933    
    594000   289.1241      -6.1174082      0              54.38822       2045.3352    
    595000   294.8352      -5.4013336      0              56.299469      2132.2341    
    596000   300.03274     -5.2775444      0              57.51096       2171.124     
    597000   315.53268     -4.6877119      0              61.344498      2177.303     
    598000   296.95732     -3.3390378      0              58.805866      2189.4769    
    599000   294.4379      -5.3684705      0              56.249189      2005.4161    
    600000   291.42972     -5.1962256      0              55.791906      2044.6242    
    601000   301.57511     -4.0995985      0              59.011681      2081.7443    
    602000   304.63319     -4.684396       0              59.066854      2014.4271    
    603000   301.39583     -2.5866774      0              60.487084      2138.8792    
    604000   303.0731      -5.7912827      0              57.633485      2025.5441    
    605000   297.75065     -4.9632865      0              57.34764       2040.5545    
    606000   300.10998     -4.6388921      0              58.165776      1993.601     
    607000   298.95225     -3.7285876      0              58.833801      2087.2889    
    608000   301.97203     -3.8511043      0              59.343238      2039.7919    
    609000   297.41555     -2.6364208      0              59.604379      2101.4104    
    610000   309.32407     -4.8242414      0              59.908679      2101.6573    
    611000   290.86735     -4.4532208      0              56.417222      2063.5932    
    612000   292.21293     -6.6600697      0              54.491966      2026.9792    
    613000   307.33913     -5.8189431      0              58.498585      2186.116     
    614000   303.16693     -4.4558922      0              58.988511      2230.2472    
    615000   299.54111     -6.3656896      0              56.319929      1916.4459    
    616000   288.04905     -3.8312933      0              56.449358      2105.8682    
    617000   293.51525     -4.5545655      0              56.870008      2009.7135    
    618000   305.81951     -4.4813691      0              59.518145      2109.7066    
    619000   290.50944     -3.742481       0              57.053062      2096.617     
    620000   294.22647     -5.1047896      0              56.468624      1925.8906    
    621000   302.47518     -4.9276322      0              58.372006      2037.8921    
    622000   305.544       -4.9003838      0              59.041474      2091.7391    
    623000   310.1866      -4.14579        0              60.767635      2147.0573    
    624000   296.49995     -4.3817363      0              57.667454      2141.3329    
    625000   300.36156     -4.029124       0              58.828192      2096.2003    
    626000   295.0091      -5.7919272      0              55.945269      1984.6448    
    627000   300.667       -4.0488772      0              58.87236       2046.661     
    628000   297.1904      -6.1192407      0              56.074441      2052.195     
    629000   302.16522     -4.0158261      0              59.218947      2157.8189    
    630000   294.2712      -4.8220632      0              56.760712      1978.861     
    631000   310.29684     -6.2568507      0              58.679645      2011.4994    
    632000   299.98807     -4.1492309      0              58.629925      2106.6024    
    633000   301.47887     -2.2818097      0              60.809328      2188.9058    
    634000   306.34959     -4.6399714      0              59.470474      2071.4406    
    635000   292.59851     -6.8091354      0              54.423591      2011.174     
    636000   303.05367     -3.3909353      0              60.029765      2117.3068    
    637000   296.28607     -4.125285       0              57.879144      2102.7677    
    638000   301.03864     -3.5183273      0              59.480683      2151.1683    
    639000   304.30728     -5.120201       0              58.562845      1983.991     
    640000   306.44827     -4.6749812      0              59.456115      2064.1221    
    641000   307.22139     -3.3307659      0              60.962123      2206.1333    
    642000   295.33532     -4.6578057      0              57.147659      2126.4279    
    643000   306.13021     -4.1660672      0              59.898468      2114.2615    
    644000   300.88059     -5.3475044      0              57.618432      2093.5915    
    645000   296.30058     -3.5845433      0              58.422924      2082.4229    
    646000   298.49449     -4.1670989      0              58.299492      2138.291     
    647000   296.40948     -4.5127384      0              57.517517      2177.3064    
    648000   290.82143     -4.2571237      0              56.60371       2091.6173    
    649000   299.92974     -5.3009341      0              57.466015      2077.9249    
    650000   305.28553     -5.7894489      0              58.098318      1982.1932    
    651000   286.57262     -4.3028496      0              55.668827      2102.2052    
    652000   295.49982     -5.4660975      0              56.373793      1985.5836    
    653000   309.12004     -3.8878273      0              60.802397      2149.0919    
    654000   306.92483     -5.439711       0              58.791115      2038.1502    
    655000   302.42495     -4.394184       0              58.894943      2171.4201    
    656000   301.1155      -4.3280305      0              58.687065      2085.3588    
    657000   290.49447     -3.9144867      0              56.877923      2192.4595    
    658000   302.85373     -4.2821422      0              59.096717      2125.7839    
    659000   301.16839     -5.4790937      0              57.54707       2034.0267    
    660000   304.70214     -5.4496011      0              58.316078      2051.4592    
    661000   293.51637     -5.4863074      0              55.938501      2067.6673    
    662000   297.81826     -4.1628367      0              58.162238      2136.1912    
    663000   306.02449     -5.3736466      0              58.668765      2114.4018    
    664000   295.64506     -4.4428796      0              57.427405      2078.0665    
    665000   294.6897      -5.1583755      0              56.511979      2106.8817    
    666000   285.05565     -4.1191897      0              55.535027      2110.775     
    667000   303.0153      -5.0739146      0              58.338756      2119.0852    
    668000   310.25073     -5.3435735      0              59.583271      2063.4707    
    669000   301.63793     -4.700114       0              58.424313      2067.2674    
    670000   294.18814     -4.8750511      0              56.690342      2125.9541    
    671000   299.54226     -5.0458919      0              57.639969      2104.339     
    672000   309.58766     -4.814418       0              59.973665      2242.4684    
    673000   294.15814     -5.1080019      0              56.451112      2157.21      
    674000   287.46317     -4.727789       0              55.430253      2006.7786    
    675000   301.30566     -4.6196077      0              58.435284      2216.9202    
    676000   301.31472     -3.1978253      0              59.858961      2204.5497    
    677000   309.06912     -4.3625125      0              60.317054      2029.2343    
    678000   309.12858     -4.444226       0              60.247784      2081.1277    
    679000   298.00779     -3.9270359      0              58.437703      2010.0297    
    680000   294.96885     -5.164827       0              56.563946      2125.4809    
    681000   300.20353     -6.4832039      0              56.341043      2002.2087    
    682000   298.67536     -4.330943       0              58.1735        2023.7149    
    683000   304.31337     -5.1020654      0              58.582254      1948.6618    
    684000   292.66898     -4.1287228      0              57.11875       2065.726     
    685000   300.64043     -5.2412818      0              57.674395      2001.9715    
    686000   296.48604     -5.2147234      0              56.831554      2015.1734    
    687000   298.41875     -5.2245121      0              57.226229      2141.532     
    688000   293.43097     -5.5221888      0              55.884748      1991.003     
    689000   295.84948     -5.5224495      0              56.390615      2106.1503    
    690000   303.45825     -4.5184472      0              58.986921      2137.8837    
    691000   302.06691     -4.3666705      0              58.847529      2182.4012    
    692000   292.94973     -3.488483       0              57.817745      2083.7742    
    693000   300.7758      -4.2796774      0              58.664327      2145.5951    
    694000   296.53997     -4.1393375      0              57.918227      2131.0315    
    695000   302.37673     -4.6681028      0              58.610934      2203.9764    
    696000   296.48386     -7.2092675      0              54.836555      2038.8325    
    697000   290.00749     -5.2802976      0              55.410201      2093.7265    
    698000   296.82838     -5.9419395      0              56.175981      2114.5893    
    699000   313.04588     -4.292329       0              61.219462      2180.0966    
    700000   294.88922     -4.0164163      0              57.695692      2027.6218    
    701000   306.89454     -4.3741383      0              59.850349      2051.275     
    702000   306.39843     -2.6665716      0              61.454094      2146.789     
    703000   295.89979     -4.6634925      0              57.260101      2134.6077    
    704000   301.75817     -4.8552648      0              58.294325      2117.653     
    705000   297.95347     -5.0029653      0              57.350406      2054.303     
    706000   302.62288     -3.8813314      0              59.449216      2147.9621    
    707000   294.16695     -4.1118251      0              57.449133      2044.9476    
    708000   299.55322     -4.8598178      0              57.828336      2075.5354    
    709000   312.45429     -2.7280904      0              62.659899      2193.4833    
    710000   298.77935     -4.7586294      0              57.767574      2084.87      
    711000   296.73788     -4.2054976      0              57.893483      2152.5803    
    712000   304.80817     -4.9902743      0              58.797594      2075.3569    
    713000   308.05803     -4.2850536      0              60.18292       2152.5903    
    714000   300.98078     -4.0360124      0              58.950889      2180.7314    
    715000   301.37309     -4.9052518      0              58.163751      2152.5937    
    716000   299.03178     -4.5669721      0              58.012058      2212.2941    
    717000   302.7285      -5.9866497      0              57.366002      1996.0551    
    718000   304.81336     -5.2006121      0              58.588343      2087.3629    
    719000   305.42444     -3.0868885      0              60.829948      2164.2717    
    720000   290.60039     -3.494906       0              57.319669      2040.1429    
    721000   306.26227     -4.396584       0              59.695587      2114.695     
    722000   305.85937     -5.1259175      0              58.881937      2105.0844    
    723000   299.71919     -5.9666577      0              56.756228      2044.319     
    724000   293.94398     -3.5927945      0              57.921501      2168.8021    
    725000   305.4289      -4.3135059      0              59.604265      2104.4598    
    726000   303.63459     -5.5540836      0              57.988188      2012.5195    
    727000   302.43827     -5.4035585      0              57.888355      2037.4251    
    728000   296.6851      -6.3904555      0              55.697481      2028.0719    
    729000   309.36899     -4.016408       0              60.725913      2183.8536    
    730000   301.9148      -4.7253151      0              58.457052      2124.7557    
    731000   300.70855     -4.3718683      0              58.558064      2081.5582    
    732000   303.03868     -3.650669       0              59.766894      2142.8373    
    733000   292.61916     -3.8553243      0              57.381723      2147.0606    
    734000   299.8212      -5.1127178      0              57.631516      2010.7961    
    735000   292.46207     -4.334181       0              56.869993      2046.947     
    736000   296.91696     -5.6023168      0              56.534142      2010.6534    
    737000   313.98467     -3.8696844      0              61.83857       2105.3617    
    738000   301.3506      -4.4079289      0              58.656366      2127.8626    
    739000   299.27639     -3.6869991      0              58.943223      2147.6238    
    740000   298.46981     -4.3613578      0              58.100068      2270.9353    
    741000   307.0893      -4.0113567      0              60.253889      2087.1845    
    742000   303.94745     -2.5751937      0              61.032549      2145.1263    
    743000   295.63172     -4.0638085      0              57.803685      2147.663     
    744000   310.5948      -5.262501       0              59.736347      2034.6108    
    745000   303.98346     -5.2470333      0              58.368246      2140.5184    
    746000   300.04257     -5.7714304      0              57.019132      1975.8452    
    747000   289.87315     -5.8815061      0              54.780878      2015.5113    
    748000   301.80167     -3.8952333      0              59.263458      2199.8647    
    749000   304.29166     -5.7425492      0              57.937228      2060.1456    
    750000   294.08806     -4.4611671      0              57.083281      2143.1276    
    751000   309.85608     -4.0423737      0              60.801882      2090.0968    
    752000   299.37527     -1.9812572      0              60.669656      2239.768     
    753000   294.80112     -5.2614904      0              56.432181      2056.9594    
    754000   303.83353     -5.1515403      0              58.432364      2107.5403    
    755000   309.0617      -4.549701       0              60.128313      2122.7859    
    756000   301.13285     -5.1135114      0              57.905215      2117.8898    
    757000   300.93081     -4.5011995      0              58.475246      2075.5712    
    758000   303.91044     -5.6775328      0              57.922467      2011.5383    
    759000   300.94349     -4.8573776      0              58.121722      2015.3196    
    760000   302.91045     -4.059506       0              59.331222      2137.786     
    761000   294.09539     -5.2554176      0              56.290564      2075.9176    
    762000   289.91884     -3.3803001      0              57.291646      2048.1362    
    763000   309.38821     -4.5797134      0              60.16663       2170.1559    
    764000   303.6058      -4.5115958      0              59.024651      2243.3935    
    765000   301.64371     -5.7201279      0              57.405508      2070.3464    
    766000   294.48535     -3.7366195      0              57.89097       2056.7033    
    767000   309.71283     -3.671811       0              61.142467      2113.2092    
    768000   303.08626     -3.5752268      0              59.852294      2219.1499    
    769000   313.32885     -3.8181844      0              61.752826      2104.0806    
    770000   295.01237     -4.2442054      0              57.493675      2091.7857    
    771000   291.43528     -6.0603828      0              54.928911      1982.7317    
    772000   299.23981     -5.6238895      0              56.998677      1981.832     
    773000   305.99684     -3.192371       0              60.844252      2199.227     
    774000   306.8647      -4.5680763      0              59.650166      2143.4416    
    775000   289.94605     -4.6428072      0              56.034832      2120.4034    
    776000   302.21689     -3.735863       0              59.509723      2121.7168    
    777000   292.27514     -3.4776381      0              57.687416      2067.656     
    778000   306.79963     -4.3503415      0              59.854283      2114.8528    
    779000   285.43658     -2.9286318      0              56.805302      2168.0714    
    780000   299.37767     -3.6090339      0              59.042382      2158.2485    
    781000   291.22957     -4.3548537      0              56.591392      2004.7587    
    782000   294.07121     -3.9979281      0              57.542993      2101.3231    
    783000   298.11735     -4.3272317      0              58.060434      2024.3355    
    784000   296.16249     -4.8361155      0              57.142452      2089.7698    
    785000   299.95907     -4.1193194      0              58.653768      2082.9082    
    786000   301.77048     -3.6465012      0              59.505663      2171.9524    
    787000   292.86759     -4.4007011      0              56.888337      2091.4776    
    788000   296.46651     -3.7092841      0              58.332908      2088.2094    
    789000   299.05122     -5.5733191      0              57.00978       2112.2565    
    790000   291.1688      -3.5463187      0              57.38721       2100.0831    
    791000   295.55438     -6.1757086      0              55.6756        2004.5347    
    792000   303.1195      -4.3150129      0              59.119464      2058.4895    
    793000   304.4192      -5.1506258      0              58.555843      2121.1051    
    794000   303.85117     -4.8384206      0              58.749174      2115.4578    
    795000   290.77698     -5.5327481      0              55.318783      1896.4108    
    796000   310.06548     -4.4371226      0              60.450956      2094.1555    
    797000   294.1445      -4.5239145      0              57.032344      2045.3377    
    798000   302.73784     -4.9955367      0              58.359069      2033.7864    
    799000   294.74434     -3.8372893      0              57.844499      2094.692     
    800000   296.46474     -4.0921721      0              57.94965       2066.9209    
    801000   299.16498     -4.4313273      0              58.175579      2056.8686    
    802000   303.55241     -4.497587       0              59.027486      2009.9623    
    803000   296.52749     -4.708049       0              57.346904      2065.0679    
    804000   297.18646     -5.4956648      0              56.697192      2051.4644    
    805000   296.95821     -3.6750088      0              58.470081      2086.6048    
    806000   301.32665     -4.6242571      0              58.435027      2131.9961    
    807000   306.11574     -5.2753696      0              58.786137      2094.0299    
    808000   305.35134     -5.4901591      0              58.411379      2055.5633    
    809000   299.30062     -4.4502811      0              58.18501       2124.7772    
    810000   289.91567     -5.425311       0              55.245971      2131.2576    
    811000   292.9004      -4.5535924      0              56.742312      2143.9518    
    812000   315.32073     -5.1357484      0              60.852107      2061.2159    
    813000   300.7627      -4.1564585      0              58.784806      2216.6418    
    814000   299.90979     -5.0024747      0              57.7603        2025.2847    
    815000   302.28778     -4.3221165      0              58.938305      2192.9998    
    816000   305.05697     -3.2097786      0              60.630157      2174.6543    
    817000   312.59239     -5.2697749      0              60.147114      2109.8993    
    818000   290.48743     -6.2837287      0              54.507207      2040.7312    
    819000   303.63066     -7.0365658      0              56.504884      1920.0907    
    820000   301.67193     -4.3671924      0              58.764349      2185.2064    
    821000   296.72745     -4.8678193      0              57.228979      2112.3826    
    822000   297.09393     -4.8584176      0              57.315076      2132.0788    
    823000   310.21683     -5.5963443      0              59.323406      2085.8193    
    824000   302.00172     -4.2353662      0              58.96519       2023.5632    
    825000   298.68354     -5.1281679      0              57.377986      2071.8974    
    826000   300.39922     -5.0854056      0              57.779793      2000.4698    
    827000   307.18204     -4.3116675      0              59.972986      2081.851     
    828000   303.65278     -5.16847        0              58.377607      2069.4675    
    829000   296.86741     -5.1443273      0              56.981761      2037.3388    
    830000   305.57926     -3.2025885      0              60.746647      2234.0829    
    831000   292.25497     -4.9157322      0              56.245101      2044.1002    
    832000   292.46975     -3.6856581      0              57.520122      2106.2391    
    833000   308.58259     -4.9652831      0              59.612466      2092.8923    
    834000   296.07062     -4.1738179      0              57.785525      2113.0442    
    835000   302.22918     -3.3111027      0              59.937055      2252.5358    
    836000   303.86806     -4.9512869      0              58.639844      2116.3126    
    837000   288.87586     -5.4022881      0              55.05139       2073.8696    
    838000   307.04254     -6.3766112      0              57.878849      2073.4827    
    839000   300.94348     -5.3490278      0              57.63007       2066.6542    
    840000   296.79279     -4.0202801      0              58.090192      2022.1507    
    841000   298.04019     -4.5368379      0              57.834681      2062.6827    
    842000   306.66515     -5.3494039      0              58.82708       2102.234     
    843000   303.33507     -4.9190044      0              58.560585      2062.6016    
    844000   298.88708     -3.7503044      0              58.798446      2182.8439    
    845000   296.79347     -5.1566586      0              56.953957      2040.2302    
[...]
   1814000   307.75952     -3.215743       0              61.189761      2152.108     
   1815000   301.2139      -4.8229944      0              58.212694      2078.7323    
   1816000   302.40524     -5.3294669      0              57.955535      2054.4962    
   1817000   291.41611     -4.6106135      0              56.374669      2144.4646    
   1818000   291.18449     -6.8603338      0              54.076477      2065.1166    
   1819000   298.49773     -4.4196227      0              58.047647      2124.0855    
   1820000   291.4857      -3.0362798      0              57.963567      2191.4585    
   1821000   308.44373     -4.8005694      0              59.748121      2028.0977    
   1822000   305.3114      -4.5948728      0              59.298308      2142.9795    
   1823000   291.14274     -8.1046884      0              52.823387      1883.0021    
   1824000   292.75181     -3.1400156      0              58.124791      2070.5419    
   1825000   299.35902     -3.9481303      0              58.699384      2064.513     
   1826000   299.88887     -3.792997       0              58.965398      2107.9118    
   1827000   302.84503     -4.3377589      0              59.039278      2050.4869    
   1828000   313.92611     -4.4089463      0              61.287053      2102.3191    
   1829000   299.18321     -3.8433805      0              58.767341      2070.4132    
   1830000   304.16528     -3.6192855      0              60.034045      2067.6641    
   1831000   294.57087     -3.2781868      0              58.367299      2109.63      
   1832000   305.7621      -3.4709252      0              60.516574      2302.8926    
   1833000   297.09756     -4.3618293      0              57.812424      2063.5857    
   1834000   300.43776     -4.5218895      0              58.351373      2059.2263    
   1835000   302.29564     -6.0673335      0              57.194733      2041.0541    
   1836000   295.9032      -4.1881241      0              57.736183      2119.3179    
   1837000   302.94219     -4.8275185      0              58.569852      1958.5652    
   1838000   298.49158     -4.1197848      0              58.346196      2144.9038    
   1839000   298.6165      -3.4173527      0              59.074772      2162.0638    
   1840000   291.75968     -4.4754926      0              56.581689      2151.7341    
   1841000   298.78701     -7.3443602      0              55.183447      1987.3277    
   1842000   305.3661      -6.114836       0              57.789793      1958.4449    
   1843000   301.44457     -3.7474975      0              59.336463      2126.6651    
   1844000   302.83149     -4.1948752      0              59.179329      2150.4157    
   1845000   295.06905     -3.8468436      0              57.902899      2176.7061    
   1846000   307.35206     -3.5724963      0              60.747739      2120.8714    
   1847000   308.43092     -4.5328658      0              60.013144      2097.0266    
   1848000   302.37113     -5.6228133      0              57.65505       2095.4536    
   1849000   290.17394     -7.4624124      0              53.262919      1935.0042    
   1850000   295.80176     -5.5880697      0              56.315008      2159.949     
   1851000   305.98148     -3.6072945      0              60.426116      2186.1978    
   1852000   304.41036     -4.8418447      0              58.862773      2153.0723    
   1853000   307.42011     -5.3610083      0              58.973466      1947.8492    
   1854000   307.71992     -4.7419013      0              59.655315      2196.4893    
   1855000   300.25434     -5.5328616      0              57.302018      2065.5391    
   1856000   308.81086     -4.276644       0              60.348876      2124.7262    
   1857000   297.91555     -5.0021262      0              57.343309      2102.5881    
   1858000   299.77651     -3.4220416      0              59.312841      2103.2038    
   1859000   314.21947     -3.6040804      0              62.153312      2220.2615    
   1860000   303.35972     -5.8166698      0              57.668078      2076.5054    
   1861000   301.01566     -5.6812471      0              57.312956      2070.4633    
   1862000   301.53862     -4.0220872      0              59.081556      2128.5982    
   1863000   293.24845     -6.3121783      0              55.056563      2024.8607    
   1864000   294.00462     -5.282089       0              56.244896      2090.7002    
   1865000   305.58541     -4.5737911      0              59.376732      2121.7043    
   1866000   302.50681     -5.2646446      0              58.041612      2035.7721    
   1867000   301.07781     -5.8550238      0              57.152185      1954.4411    
   1868000   288.54552     -4.7402906      0              55.644258      1938.7756    
   1869000   297.32502     -5.1182145      0              57.103639      2037.7416    
   1870000   312.63516     -5.2540465      0              60.171793      2042.6317    
   1871000   295.51076     -3.9373937      0              57.904787      2077.8056    
   1872000   289.74391     -3.6109632      0              57.024375      2099.9533    
   1873000   304.40712     -5.2909345      0              58.413006      1984.6503    
   1874000   294.90038     -4.8883162      0              56.826128      2184.6243    
   1875000   293.30597     -4.7635218      0              56.617257      2079.9435    
   1876000   309.25257     -5.1671427      0              59.550816      2149.0696    
   1877000   300.66292     -4.3274099      0              58.592972      2170.1746    
   1878000   291.63725     -4.119292       0              56.91227       2052.4419    
   1879000   298.63468     -3.1799029      0              59.316025      2078.7127    
   1880000   298.5628      -1.7730273      0              60.707859      2120.0954    
   1881000   306.75935     -4.2003815      0              59.995815      2139.0997    
   1882000   302.9303      -5.1614591      0              58.233425      2057.518     
   1883000   291.88372     -5.1668259      0              55.916316      2101.5195    
   1884000   305.56394     -4.3643911      0              59.58164       2101.8427    
   1885000   301.78665     -4.8815623      0              58.273986      2117.142     
   1886000   296.48666     -5.9805608      0              56.065848      2106.8172    
   1887000   305.24696     -5.7787074      0              58.100987      2051.0982    
   1888000   304.46083     -4.5672125      0              59.147967      2038.6807    
   1889000   299.48457     -6.2392839      0              56.434504      2051.9348    
   1890000   299.15109     -5.4768572      0              57.127143      2091.5263    
   1891000   306.18768     -5.7807713      0              58.29579       2103.2602    
   1892000   301.77391     -4.9976233      0              58.155259      2129.3691    
   1893000   309.43359     -4.819998       0              59.935842      2057.8354    
   1894000   290.86733     -4.7527574      0              56.117681      2103.3694    
   1895000   294.6276      -4.5738175      0              57.08354       2117.5792    
   1896000   312.39272     -5.0138252      0              60.361278      2017.2216    
   1897000   288.35043     -5.4223181      0              54.921403      2020.3929    
   1898000   306.49333     -5.4010123      0              58.739513      2094.6402    
   1899000   303.59461     -5.1334101      0              58.400494      2185.7821    
   1900000   297.80254     -6.7741463      0              55.547639      2019.4698    
   1901000   298.42472     -5.7683728      0              56.683617      1982.146     
   1902000   305.08198     -3.8350299      0              60.010139      2040.089     
   1903000   296.1865      -4.7027336      0              57.28086       2096.591     
   1904000   305.11631     -2.8426026      0              61.009751      2078.5822    
   1905000   297.75229     -4.0320046      0              58.279264      2051.294     
   1906000   294.96921     -3.9082393      0              57.820608      2131.4661    
   1907000   312.56862     -5.9268166      0              59.485098      2057.2453    
   1908000   303.83868     -4.0116369      0              59.573345      2225.9327    
   1909000   300.25712     -4.0735694      0              58.761891      2058.4509    
   1910000   303.20912     -3.9604649      0              59.492767      2136.4899    
   1911000   295.59168     -4.0636823      0              57.795432      2213.5287    
   1912000   293.43402     -4.1629261      0              57.24465       2041.4306    
   1913000   299.37422     -6.1342304      0              56.516464      2032.7521    
   1914000   300.41342     -5.1003079      0              57.767862      2116.1213    
   1915000   297.03619     -3.3108338      0              58.850576      2121.5904    
   1916000   301.1916      -3.40752        0              59.623502      2220.3296    
   1917000   298.72683     -4.8938379      0              57.621374      2123.7192    
   1918000   302.8766      -2.3931689      0              60.990475      2111.1299    
   1919000   296.77526     -3.9162771      0              58.190528      2187.7377    
   1920000   310.30535     -6.0470688      0              58.891208      2014.1798    
   1921000   300.87306     -4.4288595      0              58.535501      2139.0575    
   1922000   309.76952     -4.6095784      0              60.216562      2072.3107    
   1923000   298.01794     -5.3968736      0              56.96999       2114.0107    
   1924000   298.11713     -4.7086134      0              57.679006      2090.2361    
   1925000   298.84695     -2.9938317      0              59.54652       2072.934     
   1926000   305.01126     -5.2147306      0              58.61564       2027.6619    
   1927000   299.88474     -4.1735637      0              58.583969      2142.183     
   1928000   290.43114     -3.2480812      0              57.531075      2143.3868    
   1929000   300.96825     -3.3641657      0              59.620114      2161.4703    
   1930000   303.52321     -4.0105828      0              59.508379      2026.733     
   1931000   299.95956     -5.5266515      0              57.246537      2129.9829    
   1932000   289.08146     -4.5276952      0              55.969011      2147.5787    
   1933000   291.61944     -6.7368622      0              54.290971      1889.6273    
   1934000   296.08568     -5.7846632      0              56.17783       2046.8707    
   1935000   297.34911     -5.5620472      0              56.664848      2070.4394    
   1936000   301.56877     -3.1057166      0              60.004236      2197.614     
   1937000   301.00291     -5.2276439      0              57.76389       2052.2752    
   1938000   307.03397     -6.228739       0              58.024927      2092.3346    
   1939000   298.21947     -4.3604046      0              58.048632      2062.7463    
   1940000   303.33479     -5.0536374      0              58.425893      2090.4771    
   1941000   300.46838     -8.0532776      0              54.826393      1887.5902    
   1942000   304.27233     -4.2435738      0              59.432159      2204.728     
   1943000   300.1687      -4.4989316      0              58.318026      2018.2297    
   1944000   301.19537     -4.7617646      0              58.270046      1975.3189    
   1945000   306.12923     -4.7138754      0              59.350453      1975.4807    
   1946000   301.06376     -5.0845699      0              57.919698      2147.4275    
   1947000   303.74809     -4.0801671      0              59.485857      2175.6318    
   1948000   307.05116     -3.8586687      0              60.398595      2111.0836    
   1949000   309.63245     -3.6918139      0              61.105642      2184.77      
   1950000   297.64572     -5.3886098      0              56.900357      2005.2421    
   1951000   285.85965     -6.7590408      0              53.06343       2019.742     
   1952000   293.55485     -3.4813976      0              57.951464      2190.43      
   1953000   296.08169     -1.7792751      0              60.182384      2153.0405    
   1954000   304.52266     -4.2091081      0              59.519011      2039.8587    
   1955000   306.29208     -2.5614016      0              61.537008      2157.8833    
   1956000   304.89096     -4.1862578      0              59.618937      2143.4735    
   1957000   297.64111     -3.6578763      0              58.630126      2079.3979    
   1958000   299.9677      -4.795641       0              57.979253      2022.366     
   1959000   299.4204      -5.8037072      0              56.856651      2000.081     
   1960000   298.96119     -3.1325303      0              59.431728      2062.3864    
   1961000   295.25827     -4.3630042      0              57.426335      2180.6089    
   1962000   298.39391     -3.4714578      0              58.974085      2111.7943    
   1963000   308.22767     -3.7747945      0              60.728681      2141.7608    
   1964000   300.94835     -5.0650613      0              57.915054      2042.9768    
   1965000   297.34793     -3.5014622      0              58.725186      2118.9087    
   1966000   293.05709     -6.5645236      0              54.764171      1964.763     
   1967000   310.46025     -4.2448654      0              60.725826      2080.8106    
   1968000   295.28089     -4.6162601      0              57.177815      2156.456     
   1969000   295.1996      -3.541143       0              58.235919      2153.7214    
   1970000   295.77808     -6.4841056      0              55.414017      2072.5418    
   1971000   306.44455     -5.1874687      0              58.942849      2048.5793    
   1972000   297.41266     -3.2592906      0              58.980903      2144.3902    
   1973000   297.4715      -3.6043456      0              58.648163      2036.5512    
   1974000   309.46722     -3.9135476      0              60.849332      2208.7076    
   1975000   300.94854     -3.5652507      0              59.414904      2111.7607    
   1976000   293.4747      -4.129          0              57.287089      2034.1715    
   1977000   292.96216     -5.9222447      0              55.386583      2095.9872    
   1978000   304.11909     -4.8234563      0              58.820206      1971.6538    
   1979000   294.25499     -3.8665489      0              57.712833      2055.3932    
   1980000   303.92172     -3.1170171      0              60.485343      2209.3196    
   1981000   301.02016     -5.4010335      0              57.59411       2068.478     
   1982000   294.06679     -4.2982399      0              57.241756      2160.2194    
   1983000   298.24504     -5.7740805      0              56.640309      1934.1345    
   1984000   302.11801     -5.0633496      0              58.161543      2051.0586    
   1985000   294.97742     -3.9458777      0              57.784689      2083.3323    
   1986000   293.09849     -4.6722714      0              56.665087      2107.2664    
   1987000   302.27448     -2.8867941      0              60.370844      2078.9546    
   1988000   302.82712     -6.772679       0              56.600611      2114.0916    
   1989000   306.12896     -3.6103441      0              60.453928      2153.4428    
   1990000   300.18831     -5.2046453      0              57.616415      2086.1397    
   1991000   310.48899     -5.525244       0              59.451463      2060.6633    
   1992000   302.62909     -4.3091707      0              59.022676      2183.2575    
   1993000   299.29297     -4.3909541      0              58.242737      2191.4295    
   1994000   298.82635     -4.5816711      0              57.954369      2090.8583    
   1995000   301.03184     -4.3641973      0              58.63339       2119.4989    
   1996000   291.43666     -5.4393133      0              55.550271      2149.8625    
   1997000   293.04458     -6.1037461      0              55.22233       1985.2599    
   1998000   294.13848     -4.0163095      0              57.53869       2158.0943    
   1999000   300.41249     -2.2323345      0              60.63564       2160.651     
   2000000   295.62214     -4.4214144      0              57.444074      2126.9076    
   2000101   305.5546      -4.3569847      0              59.587091      2127.515     
Loop time of 10575.4 on 16 procs for 2000000 steps with 1620 atoms

Performance: 8.170 ns/day, 2.938 hours/ns, 189.118 timesteps/s
99.7% CPU use with 16 MPI tasks x 1 OpenMP threads

MPI task timing breakdown:
Section |  min time  |  avg time  |  max time  |%varavg| %total
---------------------------------------------------------------
Pair    | 8003       | 8685.1     | 9878.4     | 607.4 | 82.13
Bond    | 0.88129    | 0.92533    | 0.96193    |   2.3 |  0.01
Neigh   | 12.544     | 12.987     | 13.427     |   9.5 |  0.12
Comm    | 645.35     | 1837.6     | 2519.7     |1319.9 | 17.38
Output  | 0.93553    | 0.9359     | 0.93731    |   0.0 |  0.01
Modify  | 21.345     | 22.391     | 23.202     |  13.3 |  0.21
Other   |            | 15.45      |            |       |  0.15

Nlocal:         101.25 ave         109 max          95 min
Histogram: 1 0 4 3 1 4 1 1 0 1
Nghost:        5085.62 ave        5118 max        5063 min
Histogram: 2 1 2 2 3 1 4 0 0 1
Neighs:        51669.9 ave       55719 max       45776 min
Histogram: 1 1 0 3 0 3 0 2 5 1

Total # of neighbors = 826719
Ave neighs/atom = 510.32037
Ave special neighs/atom = 0
Neighbor list builds = 10400
Dangerous builds = 0
comm_modify cutoff 27.58
compute myRDF all rdf 1129 cutoff 22.58
fix 2 all ave/time 1 1 1 c_myRDF[*] file ljg2_nvt_49rdf.rdf mode vector
run 0 pre yes post no
Generated 0 of 0 mixed pair_coeff terms from geometric mixing rule
WARNING: Compute rdf cutoff less than neighbor cutoff - forcing a needless neighbor list build (src/compute_rdf.cpp:179)
Neighbor list info ...
  update every 1 steps, delay 0 steps, check yes
  max neighbors/atom: 200000, page size: 2000000000
  master list distance cutoff = 27
  ghost atom cutoff = 27.58
  binsize = 13.5, bins = 4 5 4
  4 neighbor lists, perpetual/occasional/extra = 3 1 0
  (1) pair lj/cut, perpetual
      attributes: half, newton on
      pair build: half/bin/newton
      stencil: half/bin/3d
      bin: standard
  (2) pair gauss/cut, perpetual, copy from (1)
      attributes: half, newton on
      pair build: copy
      stencil: none
      bin: none
  (3) pair gauss/cut, perpetual, copy from (1)
      attributes: half, newton on
      pair build: copy
      stencil: none
      bin: none
  (4) compute rdf, occasional
      attributes: half, newton on, cut 24.58
      pair build: half/bin/newton
      stencil: half/bin/3d
      bin: standard
Per MPI rank memory allocation (min/avg/max) = 3.053e+04 | 3.053e+04 | 3.053e+04 Mbytes
   Step          Temp          E_pair         E_mol          TotEng         Press     
   2000101   305.5546      -4.3569847      0              59.587091      2127.515     
Loop time of 1.26983e-05 on 16 procs for 0 steps with 1620 atoms

uncompute myRDF
unfix 2
write_data ljg2_nvt_49/ca_md.data nocoeff nofix
System init for write_data ...
Generated 0 of 0 mixed pair_coeff terms from geometric mixing rule
Neighbor list info ...
  update every 1 steps, delay 0 steps, check yes
  max neighbors/atom: 200000, page size: 2000000000
  master list distance cutoff = 27
  ghost atom cutoff = 27.58
  binsize = 13.5, bins = 4 5 4
  3 neighbor lists, perpetual/occasional/extra = 3 0 0
  (1) pair lj/cut, perpetual
      attributes: half, newton on
      pair build: half/bin/newton
      stencil: half/bin/3d
      bin: standard
  (2) pair gauss/cut, perpetual, copy from (1)
      attributes: half, newton on
      pair build: copy
      stencil: none
      bin: none
  (3) pair gauss/cut, perpetual, copy from (1)
      attributes: half, newton on
      pair build: copy
      stencil: none
      bin: none
Total wall time: 2:56:16
