ITEM: TIMESTEP
0
ITEM: NUMBER OF ATOMS
1620
ITEM: BOX BOUNDS pp pp pp
0 52.794504272175
0 54.794296100667
0 45.195295323908
ITEM: ATOMS id type xu yu zu
1 1 43.17211870 28.70793797 21.43672700
2 1 3.78535592 27.65333031 31.94462180
3 1 15.31557825 26.65664571 42.06588064
4 1 40.46033711 30.05262689 42.50818144
5 1 21.14450043 29.43745058 10.02744049
6 1 5.98947945 13.99683675 31.03795157
7 1 27.64655065 50.64101515 25.47663956
8 1 50.51445548 26.85920467 25.53564085
9 1 40.99143977 19.93898415 42.00599773
10 1 43.93353869 45.34203960 7.23239210
11 1 44.70074109 -0.34529011 3.04890873
12 1 30.33138832 54.69713803 43.98759208
13 1 29.94255175 9.34521529 43.37018808
14 1 6.23633656 -2.79833574 34.82313171
15 1 26.95980674 45.65899633 2.76570366
16 1 48.38754313 50.34975722 6.04801020
17 1 27.11509278 29.24793763 30.87887394
18 1 15.61885000 1.43765441 19.52258914
19 1 38.15910992 17.68198524 20.16343668
20 1 23.31322607 55.02793034 35.50950048
21 1 23.98594882 35.97309311 35.04435753
22 1 -0.62815646 8.53260644 29.81496653
23 1 45.38453600 38.66545384 24.27473553
24 1 44.65978185 6.50253907 42.94499663
25 1 31.01472379 18.38728290 12.23554177
26 1 6.90206657 32.26526732 3.83762236
27 1 3.00161422 55.38064420 42.63328388
28 1 26.26632252 4.92225274 34.82146239
29 1 13.95780358 35.07169864 13.75658446
30 1 23.99223154 24.76578411 7.37763651
31 1 13.51710328 29.01900631 -1.11438291
32 1 43.67347509 2.78002321 20.45343178
33 1 45.13489354 28.06271053 17.93904697
34 1 31.57505273 44.32378738 13.36343772
35 1 15.87690730 20.84426708 35.39815764
36 1 42.07579973 54.00451177 15.18819322
37 1 10.90067084 39.48796346 11.02819362
38 1 46.95703762 8.56811944 15.79926777
39 1 55.40300528 44.61366204 13.30725977
40 1 6.80262023 28.20982064 43.12251899
41 1 49.93594177 54.29485769 10.89699085
42 1 22.04817218 33.07823100 8.39511025
43 1 14.41603508 18.60357808 11.16715009
44 1 28.92082524 28.26732662 43.00054174
45 1 41.01158972 23.08025891 0.11378182
46 1 44.05966866 46.99951696 12.92642093
47 1 47.16626574 45.32005936 12.55020771
48 1 41.47775992 13.58275210 13.80288172
49 1 8.19781529 40.09173053 22.71699293
50 1 17.49794644 30.75773840 39.25659938
51 1 35.84702418 50.49670647 27.69315884
52 1 45.19781530 14.78086081 19.08332836
53 1 20.66482494 44.33354260 23.00591996
54 1 36.32593054 48.64992838 3.16041317
55 1 12.52845514 35.03730445 26.25651947
56 1 50.52759901 46.64372063 12.66563588
57 1 49.35401852 31.68122291 18.25741443
58 1 21.84957465 52.47981824 40.23232512
59 1 33.55996548 30.24615194 0.02457260
60 1 3.27778768 9.80493598 36.04100280
61 1 9.50427748 41.40468628 38.56801296
62 1 20.59007391 40.82066944 20.73605260
63 1 31.21595224 21.73965137 22.42206782
64 1 1.85747085 44.22243221 1.19478231
65 1 48.45262544 8.07227323 19.60477431
66 1 50.86763606 19.50485433 16.62812414
67 1 22.35308150 45.81750753 35.43859668
68 1 41.49380966 3.93641107 14.59575264
69 1 46.05714357 52.27700352 21.47567289
70 1 49.36443076 34.38840472 0.57810925
71 1 39.76486860 47.59835581 41.39173491
72 1 31.16788472 40.71972832 18.70144361
73 1 50.11327816 15.45541231 9.49249223
74 1 12.10008538 -0.42647090 0.61100180
75 1 26.98890599 26.37320146 28.71895020
76 1 43.30966051 18.80270570 17.52208585
77 1 21.45550579 35.86570733 19.67053959
78 1 33.91947208 12.67558621 9.36723896
79 1 28.30851580 16.98066191 21.02697416
80 1 23.48249194 5.99740387 37.76747452
81 1 48.86568864 50.07168681 34.73135370
82 1 27.32615242 20.23432585 25.24326110
83 1 30.83514765 33.13832688 38.30095945
84 1 30.00700896 23.42612547 -1.28544549
85 1 17.88281443 49.71215378 22.40818306
86 1 35.44449555 16.67937725 37.80160811
87 1 11.13719514 22.01190851 27.78055987
88 1 16.95940671 55.02738366 22.75075204
89 1 25.86574878 11.79517086 20.51280834
90 1 15.66922724 23.56047187 25.09091000
91 1 20.65992829 30.32576991 16.32420888
92 1 12.25814048 4.31141967 8.62203978
93 1 26.31037981 34.48295482 19.98146560
94 1 16.48070167 27.79486147 1.74006142
95 1 4.73096875 10.33238780 27.04274629
96 1 23.29394799 15.66573751 11.89455653
97 1 52.42835299 37.07352677 28.79778530
98 1 6.51337581 29.27666916 27.12837593
99 1 12.74103910 5.56551317 27.70996594
100 1 7.07781869 2.43039728 39.09705231
101 1 25.46002743 38.90033196 37.91832968
102 1 47.54809887 55.46133055 32.59220666
103 1 29.04796323 7.52235509 33.98606766
104 1 27.21704897 17.24410170 16.05668663
105 1 0.53044954 23.47290057 21.95592206
106 1 45.86634000 50.90768709 36.54570472
107 1 32.23202349 47.43089346 2.13964090
108 1 17.29616590 41.12115860 9.27700285
109 1 51.32735773 15.62286487 16.69941391
110 1 36.58045755 7.64349168 4.55671733
111 1 36.11665286 4.59926967 25.44367057
112 1 14.58825902 2.45272959 37.51983735
113 1 28.41203089 51.52143777 21.93023260
114 1 33.02630525 22.59343657 38.67050645
115 1 35.29693396 2.89039738 14.40064107
116 1 21.05560707 21.10753011 37.18260538
117 1 10.79175662 26.65886351 42.18493361
118 1 20.83683965 30.80894358 22.65839451
119 1 21.35046117 -2.52779757 43.78515057
120 1 7.56306413 17.40904049 34.69210381
121 1 31.26151877 29.41043756 39.48062070
122 1 1.23144200 10.02953518 2.68521230
123 1 9.64563040 4.35712926 32.82009741
124 1 22.53205830 42.61257545 12.58875016
125 1 18.50434165 24.29242206 2.62296673
126 1 29.26249376 34.81429448 35.62547772
127 1 20.67568568 32.11602990 -0.66273624
128 1 11.52261875 1.47775255 24.09999370
129 1 24.90467314 7.00023391 10.32659134
130 1 19.32344308 25.95820060 25.52540757
131 1 5.28169603 52.35601199 41.74307661
132 1 3.53327293 48.11650578 14.79732126
133 1 31.03973513 36.10818539 15.25410438
134 1 6.27587324 19.49940499 29.14040150
135 1 7.90890491 53.62538330 3.95631693
136 1 0.06095546 38.46040001 2.80793135
137 1 38.96714509 50.08294666 7.32276868
138 1 23.47206520 22.09662890 2.52450738
139 1 4.27881211 13.30860939 40.24059251
140 1 20.32746221 38.85841217 8.99181246
141 1 10.53952826 14.30125577 4.00794836
142 1 46.02507762 37.46266211 31.00033159
143 1 50.10791537 30.47429022 22.76488639
144 1 46.97740559 36.35596450 35.80437583
145 1 24.09083499 28.20947222 15.99706480
146 1 47.12058444 26.81347665 15.02085713
147 1 12.23629087 23.39857787 9.63682054
148 1 4.78018793 1.95478727 14.06108760
149 1 11.06925970 46.51414584 6.23728868
150 1 21.20182741 37.29982648 32.45620174
151 1 12.54690966 50.36286498 2.48907223
152 1 9.05028616 52.26133808 24.31251536
153 1 46.28815297 26.68304796 31.54581550
154 1 28.60522220 58.34075257 23.08818824
155 1 19.66873620 20.74687718 21.42137162
156 1 2.14101024 26.13659259 20.03941307
157 1 6.00145203 18.01756804 11.67166601
158 1 37.28541228 23.72287809 22.79564646
159 1 17.28404388 18.57656112 19.63805643
160 1 15.64507816 8.12196874 13.93778464
161 1 12.88172067 47.39319162 44.44703580
162 1 13.40722781 43.09029378 1.30673059
163 1 8.77371272 22.38573066 44.96600572
164 1 4.95131033 46.41645112 2.13905949
165 1 27.92324784 6.62525981 38.51273810
166 1 51.10259606 48.53604206 29.66808231
167 1 46.97440678 26.75135689 21.14655311
168 1 17.71775701 37.06080582 41.34720385
169 1 49.34235571 25.60639290 7.59290580
170 1 11.04637681 2.94943648 15.69880512
171 1 1.23129513 11.55498975 28.52229740
172 1 40.51146455 48.25385645 30.50421425
173 1 22.66844499 7.05043933 32.69626871
174 1 24.68438543 38.54205122 16.50177086
175 1 40.15535633 44.90861596 8.25337181
176 1 37.91837150 1.26091685 40.06693833
177 1 45.30698591 23.53428943 6.29605418
178 1 44.60570825 50.09212197 26.72054675
179 1 11.80562524 25.18987064 25.94731634
180 1 2.88904368 20.12063595 35.81928660
181 1 25.61869840 22.98673292 23.30127050
182 1 41.60823994 8.54222388 41.25973720
183 1 24.84832030 28.71327335 45.04073829
184 1 -0.12521887 26.64929713 17.07464864
185 1 44.48217899 22.20782721 42.14341219
186 1 14.23969447 34.12886882 38.42895057
187 1 18.56356930 14.50448013 5.66595922
188 1 38.21207882 34.37990502 0.34926402
189 1 33.66942675 36.39029873 22.35634848
190 1 35.13680588 32.03864886 12.59293826
191 1 6.69990189 5.45452241 13.67428922
192 1 27.26268230 6.93790825 2.22787159
193 1 44.65922792 24.35034626 17.67551810
194 1 8.29482578 21.07921712 20.09104780
195 1 54.91079193 30.82186811 20.59249167
196 1 40.28919148 22.69124610 17.63162748
197 1 45.22773422 49.48141169 30.85459175
198 1 50.27688203 47.25405697 4.04469119
199 1 2.52693884 2.15771918 21.84094022
200 1 9.82787326 35.92281110 30.96492166
201 1 25.06833357 1.73252838 38.61115211
202 1 42.71077153 50.49094190 40.05363827
203 1 34.65699796 43.18382999 26.66682737
204 1 14.83925222 52.76725687 11.44902250
205 1 48.43124920 47.02708480 18.61435260
206 1 31.72009943 5.29280226 6.55634909
207 1 19.04443771 46.41246948 25.57954397
208 1 16.42948103 6.55490765 29.65051523
209 1 10.32316816 10.63512969 3.13267029
210 1 4.38307662 6.79177659 33.77855088
211 1 4.08588276 17.31654384 23.46231467
212 1 18.47266970 2.74185956 17.16634739
213 1 18.63896065 36.68491227 2.95711335
214 1 17.23791304 46.26654565 20.72572514
215 1 40.78724240 8.89717740 18.05982962
216 1 2.18982253 22.92659259 25.17610957
217 1 20.03759456 10.05476715 10.60548421
218 1 45.18570770 45.62759535 36.49881646
219 1 3.47724488 33.76123709 39.63111886
220 1 11.27851548 25.85842418 1.24898079
221 1 52.65629231 18.16957600 46.58321909
222 1 6.04067983 28.32234426 2.03012005
223 1 22.14792038 18.85327232 9.63802744
224 1 4.47829401 12.14515107 16.32679968
225 1 54.77430512 6.82872227 9.09120739
226 1 48.29907162 15.48835101 0.34105104
227 1 24.77996259 -0.02842297 4.91115358
228 1 0.84095626 34.24727688 1.86228929
229 1 25.95540415 11.80898228 30.75107557
230 1 5.13651807 8.55921254 10.43398010
231 1 45.53904399 29.85530559 2.35313382
232 1 52.12011909 15.51764987 20.39978396
233 1 43.23878411 54.98058381 44.08108068
234 1 22.60834979 5.19890549 24.44082528
235 1 9.93828113 28.08889441 18.76346514
236 1 0.85713732 50.89735259 21.22301218
237 1 43.93055752 12.13766519 22.65609603
238 1 43.79363855 21.08861841 29.17275856
239 1 2.75707061 25.17959446 13.92145214
240 1 41.01381696 25.37473684 13.97555041
241 1 -0.51373559 49.41463599 25.14359452
242 1 37.24577785 30.40997700 40.80708375
243 1 1.75641782 16.12755810 34.87886755
244 1 20.69144850 45.56744263 8.03104103
245 1 28.63269301 10.22821261 37.56521084
246 1 36.27281597 31.79153701 23.64448009
247 1 34.25365737 36.36358243 4.09988170
248 1 11.31081889 55.27728768 20.28972814
249 1 12.84352710 53.18842458 30.35995064
250 1 52.52991169 40.83651269 28.89688322
251 1 17.32082203 18.67511509 4.00304972
252 1 17.24206471 51.08965208 36.77516480
253 1 40.60887750 46.48503751 37.38330883
254 1 18.16995050 33.76609602 4.76733579
255 1 33.49176400 42.81722968 38.05308756
256 1 42.67836793 28.57581967 15.02620916
257 1 7.28221503 1.59895395 25.28972501
258 1 3.25633046 40.79066680 24.82174936
259 1 38.59447860 7.58939640 35.59305214
260 1 32.68905210 3.12186674 36.55999043
261 1 45.17965865 8.35850971 21.51463554
262 1 42.42111383 37.59543028 17.01794927
263 1 23.65576263 29.69749142 35.17291873
264 1 7.75113661 23.38781345 34.98565594
265 1 38.75406492 10.19468466 15.04945579
266 1 44.06196907 10.96763186 14.59691560
267 1 6.93434955 32.88706358 32.37215779
268 1 27.26558652 16.06849141 35.45592845
269 1 40.48452300 53.36977702 11.92771647
270 1 39.04418045 41.24972432 19.30239327
271 1 14.71386304 11.05172951 11.29666427
272 1 49.67852755 24.03018400 22.31011145
273 1 42.77562877 49.83055691 16.29914508
274 1 18.70174211 48.50918918 34.43589324
275 1 33.43732102 36.84981748 37.14334770
276 1 9.34022037 56.01080145 44.38754795
277 1 47.39987187 55.92032965 24.14601680
278 1 44.26620492 32.53788173 14.39776701
279 1 11.69298570 10.08481023 39.67384973
280 1 45.94380475 27.10105121 42.79908530
281 1 34.97607418 21.69029142 11.90798256
282 1 21.81987001 39.50206852 5.39220488
283 1 46.77352739 9.98056136 39.20805276
284 1 35.52372061 42.10814677 10.99087764
285 1 46.08165439 14.51717812 14.65498713
286 1 51.27014427 21.13927809 37.62152609
287 1 34.14869329 35.07445918 25.90841298
288 1 39.56690472 -1.38383096 42.84557294
289 1 14.90405160 16.01520609 14.06932564
290 1 30.12666158 43.48037270 33.98598238
291 1 43.23395166 34.37666385 19.75580551
292 1 14.62846256 30.75891842 15.28081504
293 1 36.69560209 37.95200470 15.41878035
294 1 8.99974741 -0.67127647 37.20124945
295 1 42.80228866 0.95361517 29.13497555
296 1 24.39853243 32.51013010 32.62382857
297 1 13.24350057 16.73755308 3.66951835
298 1 50.06975347 39.43047152 15.61210868
299 1 28.30044661 17.50985717 -1.15220585
300 1 30.79722279 6.47740075 24.03748550
301 1 45.09877649 35.54837999 0.67170351
302 1 23.66130270 36.71508512 22.73491124
303 1 49.21715624 38.06531995 4.01185667
304 1 5.91280985 21.90319861 7.41851821
305 1 36.65583291 48.36095583 31.41932835
306 1 33.16316831 22.70853277 32.24753998
307 1 44.36816087 8.45080599 31.83370157
308 1 49.33974680 13.62007324 41.19812471
309 1 42.11151029 3.46662398 37.89784176
310 1 10.89990122 27.96232243 34.47427009
311 1 10.98311329 12.29390195 15.71259509
312 1 32.85721961 10.17332659 13.52442972
313 1 52.28076177 1.92668276 40.54858278
314 1 19.26887451 47.71265572 3.24926311
315 1 27.55851733 24.38555995 5.51299279
316 1 36.81774147 33.95677188 14.99941008
317 1 23.86473540 15.66158847 30.85505124
318 1 2.53227294 15.75839737 28.48918850
319 1 39.43296836 50.50829327 35.16206020
320 1 30.32895636 47.63582149 8.12827782
321 1 43.55494799 37.87625138 42.22988708
322 1 32.66819536 2.01390785 4.86883251
323 1 36.25086068 46.96288520 15.93565238
324 1 26.03939587 48.28129426 8.41053465
325 1 15.08544800 28.79005670 34.58424116
326 1 20.55002891 18.53266548 27.84860412
327 1 10.03063497 12.41007253 31.03806312
328 1 16.83563297 38.91202771 35.29064399
329 1 18.18439644 12.28900010 -1.46961624
330 1 19.13644880 16.37090584 42.09675505
331 1 6.17845786 2.32194113 31.64547358
332 1 38.54779130 41.52684198 14.60593893
333 1 7.49101875 8.97438730 20.94534716
334 1 28.25039446 47.30740858 11.98586259
335 1 9.89143877 42.95772654 44.38065528
336 1 11.54004537 7.41785954 15.03997223
337 1 52.02622194 7.84134448 34.87748236
338 1 43.69627890 23.89120308 22.14700704
339 1 52.91966986 31.12063520 40.74548058
340 1 23.07549151 45.57276319 45.71412630
341 1 13.57890974 51.53529694 33.62655616
342 1 23.15790182 0.84331046 24.34283690
343 1 3.80025178 52.51211626 13.53803416
344 1 5.67517118 14.04751438 13.54983673
345 1 34.37377713 -1.88143291 14.92348160
346 1 1.38592240 1.46271441 8.85478208
347 1 45.98430962 20.12745123 26.12665582
348 1 40.31374032 40.92769120 27.93758503
349 1 26.55329146 13.49883883 23.83093061
350 1 15.13630176 24.36793090 31.60762770
351 1 4.79488687 11.83099638 20.39729679
352 1 37.31704782 30.82357116 19.90369661
353 1 14.60206637 10.67957205 30.22681880
354 1 16.90365477 33.77304232 15.96967993
355 1 24.76422750 20.55095454 37.98710216
356 1 38.12465333 7.72560008 31.03345403
357 1 47.49353784 22.31109521 30.77622063
358 1 29.13370105 35.87827893 25.81878956
359 1 27.37731251 19.47246572 2.01336140
360 1 6.28536838 54.56787303 22.01897788
361 1 12.10078756 19.32121152 38.08165485
362 1 27.68139266 22.83553616 38.66008097
363 1 6.52867990 46.75355157 12.84696154
364 1 30.99731708 53.35517913 25.44613383
365 1 26.68812597 26.01369339 24.95731648
366 1 36.50252437 21.00617288 38.01063617
367 1 29.06657787 10.60322699 7.78406604
368 1 40.55131954 46.19299793 16.81699383
369 1 11.15583168 31.82195074 15.20837601
370 1 2.20210949 28.24707464 9.20168071
371 1 42.91266709 20.05043153 33.98201270
372 1 36.09127709 24.68628660 30.32527599
373 1 2.25509615 44.10616456 26.18669818
374 1 39.65291547 26.10187974 31.19282207
375 1 38.16852664 16.50892736 30.69732774
376 1 46.72720906 42.30979244 32.20552871
377 1 9.33816537 10.54665537 24.86341615
378 1 35.41341748 54.48237927 28.20655925
379 1 15.81153835 47.56809796 31.40151508
380 1 33.70957823 27.27328637 36.93075206
381 1 13.35074272 26.05155371 16.93416528
382 1 26.80503355 29.72761271 8.86434633
383 1 35.37194971 35.28992959 9.91308447
384 1 14.90971187 39.14105341 12.50924784
385 1 24.53964661 12.18746558 16.84548928
386 1 26.20643556 5.11956950 42.97239423
387 1 49.23058162 24.92427594 18.46074544
388 1 20.02162664 7.71358512 29.40297488
389 1 14.34115444 12.60325687 26.82617426
390 1 51.04378037 7.75360644 7.19972018
391 1 34.40100337 15.99622826 24.96182156
392 1 24.03179519 44.43780164 6.29025698
393 1 14.73680464 7.06554991 46.08992928
394 1 32.85980246 43.38504987 1.52274507
395 1 10.94714515 49.40616523 34.66728835
396 1 16.02999535 38.03010007 21.96610407
397 1 20.92178423 8.18029343 18.89579392
398 1 26.00412632 -2.94772657 40.25332415
399 1 43.43697831 47.10496047 1.11227665
400 1 2.63352319 40.28849560 31.45654138
401 1 31.06044334 12.65142674 28.55222800
402 1 9.14853446 15.65116758 15.97125656
403 1 28.52647393 3.02784016 45.40714432
404 1 21.66795775 18.85384538 4.44267597
405 1 38.44512086 12.33908616 40.23913057
406 1 14.43440979 13.05941912 5.05382662
407 1 52.15906371 41.61007423 4.36616447
408 1 39.61009916 11.71533343 26.29165283
409 1 37.64657374 42.98440253 30.35461441
410 1 52.08736031 32.92168211 24.49595521
411 1 38.21830267 47.35486473 10.85903695
412 1 21.07316067 33.07687223 38.64793391
413 1 15.92659782 43.08882955 39.83109210
414 1 51.28805442 42.60415181 -0.08189442
415 1 24.03579678 43.08379321 42.65919033
416 1 14.40861980 52.98601800 16.16617309
417 1 31.97908520 47.49894628 24.19690570
418 1 5.15529592 35.17123431 17.14005416
419 1 32.54649731 31.75834483 22.59508870
420 1 41.79421508 31.60710134 17.00450007
421 1 6.55324382 15.97428482 27.01903216
422 1 -1.70506103 13.95682852 30.65566744
423 1 50.32137402 55.16587272 2.29610741
424 1 33.49047829 38.61380566 13.17927108
425 1 42.94774819 40.97608568 30.80101744
426 1 8.58998543 48.87139896 25.40689840
427 1 29.88256770 48.63131488 41.81410464
428 1 51.67346577 26.02085044 31.03638083
429 1 32.25466390 21.98055605 9.60658067
430 1 5.37379058 26.47389374 18.08297555
431 1 8.57017999 2.89864722 21.31704425
432 1 12.32094063 53.20687074 26.77741503
433 1 2.74649591 17.45609462 9.95384213
434 1 2.18743644 22.85663278 6.95638116
435 1 38.96281338 20.48234590 8.61904609
436 1 33.09324057 40.80670961 32.16598942
437 1 16.34796310 27.19380604 14.99205267
438 1 41.98855940 7.17248390 7.99270339
439 1 52.74162437 12.56919383 39.01434668
440 1 10.65371341 27.47960652 5.54525067
441 1 13.71059427 34.32793231 1.67099606
442 1 18.60448748 13.52005532 35.63762539
443 1 6.69006520 26.50001235 33.57008380
444 1 35.00876707 40.29830779 5.29734904
445 1 8.64635717 43.48665219 9.37476444
446 1 38.17057995 24.53327936 4.22407650
447 1 39.49414931 3.47565966 44.66348576
448 1 6.70097325 50.07197484 6.33173725
449 1 56.89849308 4.80641787 19.49836410
450 1 11.73818047 52.97363501 5.58724708
451 1 46.76095800 43.43223880 40.70749089
452 1 37.96432606 54.02142625 5.66206501
453 1 10.63626109 36.95072815 15.90474111
454 1 16.71943115 17.17422543 44.86347162
455 1 48.74061516 18.30449587 11.56521828
456 1 29.94344910 51.28420812 10.57578514
457 1 38.54633212 4.82736695 38.64420016
458 1 47.76750472 50.38870763 24.85381166
459 1 49.43535801 46.83324159 33.29104736
460 1 20.12700267 40.60103743 24.13488354
461 1 33.73680094 18.06678950 19.44703279
462 1 20.20546315 36.03795945 14.72915717
463 1 19.02151493 43.69358731 11.43391862
464 1 1.55477851 19.67552106 15.30817836
465 1 21.61066091 18.34197249 18.05511648
466 1 0.22015040 34.84482172 40.88007397
467 1 34.96569830 11.04799644 32.53847435
468 1 46.50822283 15.16397796 10.70420113
469 1 46.66231978 42.19395846 15.39558612
470 1 21.78312151 18.76893688 -0.15776964
471 1 17.20151842 13.66075268 31.84769776
472 1 3.93926241 50.02133661 23.48121183
473 1 0.79559469 0.82974861 34.63967671
474 1 41.31977001 45.13699296 4.20836548
475 1 17.13535964 49.82010286 28.28757886
476 1 48.80207469 11.28095071 5.01050792
477 1 50.37087232 29.49772632 30.85220024
478 1 17.50583330 0.09421328 36.72694782
479 1 34.98064963 48.36759407 -0.45035970
480 1 32.29230095 48.98651770 37.50173905
481 1 36.15778914 27.60603093 21.43662829
482 1 39.40904334 47.41949325 21.17626082
483 1 44.20074590 5.85332589 1.56868034
484 1 8.05830907 43.27465470 26.40445947
485 1 26.72608507 32.75569137 16.80475936
486 1 26.90673978 12.90524277 14.10343954
487 1 36.17397654 17.05408126 16.81078916
488 1 48.92169033 4.47498530 14.65900919
489 1 43.97727261 41.38923435 3.07433175
490 1 18.98866071 7.03398712 43.37449716
491 1 13.67931993 36.98484779 29.07892034
492 1 33.61728902 17.97561457 29.10775722
493 1 41.83560783 15.50423387 7.21907869
494 1 5.03930853 38.99225085 10.46733554
495 1 3.96175502 53.34672168 25.78193014
496 1 24.92793195 45.46029500 10.61410393
497 1 34.75365084 -1.88941898 41.89134462
498 1 11.00171799 35.67504344 41.82651266
499 1 37.65410165 15.90098996 41.23038652
500 1 11.61701210 5.98450531 41.89923513
501 1 30.67607878 26.15150716 10.13081514
502 1 26.17150200 47.92016530 21.31220600
503 1 30.68790423 3.96999293 32.23942160
504 1 39.27967152 19.29663621 1.78575458
505 1 27.41735052 43.97028177 31.20256802
506 1 27.46276247 25.46179060 41.25001163
507 1 26.17641574 39.19679251 27.78690544
508 1 23.49099806 50.37227256 25.37657854
509 1 44.69135773 15.32391307 42.88920698
510 1 11.84057641 21.03214397 31.48254225
511 1 0.92136813 44.50328364 35.81680819
512 1 31.50053465 16.08170786 43.56714848
513 1 4.31473930 38.58140831 1.58089732
514 1 19.66833013 51.25825089 26.19467125
515 1 42.23028561 2.77826493 2.04596245
516 1 42.81828402 52.67068689 18.65942926
517 1 21.43762923 10.20190360 34.19104518
518 1 3.57385239 12.61728313 23.89740367
519 1 28.17695548 20.25161000 5.74798084
520 1 40.46554589 10.40900808 47.85137532
521 1 28.57488308 54.21061776 16.92753236
522 1 25.24132803 49.15992265 17.70014873
523 1 41.96389189 16.68167027 27.97395337
524 1 29.53340538 51.63151763 37.90370466
525 1 22.11293310 42.08565685 16.63583902
526 1 41.33691364 22.13148572 5.67983269
527 1 37.77707265 30.10848762 26.90842845
528 1 25.69796436 21.21550415 28.26148103
529 1 4.28105062 50.55424970 9.93773386
530 1 17.93752584 2.42967120 27.82176389
531 1 41.67274832 4.12656690 41.65877715
532 1 24.11043940 32.87877769 23.10355520
533 1 46.43968118 43.43702418 23.09337048
534 1 19.72345546 25.67017911 13.98945058
535 1 43.45243519 29.14625597 29.65644688
536 1 30.45474844 20.71658766 40.28573725
537 1 29.47600620 41.19191464 -0.79472887
538 1 49.65349477 8.42399457 38.02797089
539 1 17.69831184 32.25538918 1.25504586
540 1 10.55126786 45.27683953 13.36448120
541 1 4.38698447 10.12730105 5.23846038
542 1 39.27701525 52.02312119 31.77480590
543 1 44.67133527 7.38233055 37.10261826
544 1 19.41708834 10.17043157 1.93353882
545 1 31.10314217 41.45364396 22.80680035
546 1 6.14274947 5.32742452 23.29897373
547 1 12.93488102 15.22676786 31.47944784
548 1 32.63081493 31.03311816 16.06998149
549 1 44.13629495 14.67994628 1.24175002
550 1 5.90723695 48.05505597 35.90458620
551 1 10.05195217 56.23249737 12.91405544
552 1 22.37854826 44.68721443 31.33838556
553 1 51.77177301 40.87768552 33.60517485
554 1 46.40572688 32.41264024 41.29186771
555 1 30.05612205 8.26246161 4.09263813
556 1 16.09899791 -1.72064219 44.03169437
557 1 24.56830885 8.23778175 19.27910781
558 1 13.30199479 39.07213173 36.70355217
559 1 29.18611433 18.98985704 32.19059747
560 1 22.28946050 42.65930320 26.59458708
561 1 48.18037769 29.21119980 26.60012589
562 1 3.47949071 23.28882730 -0.06815228
563 1 49.28252079 38.03838504 32.44936267
564 1 46.27441219 3.50461305 37.63796935
565 1 51.10746512 10.00684137 44.82901150
566 1 41.80256800 9.80907425 28.78182963
567 1 41.44348594 4.65605887 5.30027740
568 1 14.93688879 8.89571988 42.88803832
569 1 17.71636657 25.52615285 6.54668469
570 1 34.07188498 28.99952773 25.23252449
571 1 51.46385597 54.38151499 6.21494912
572 1 36.26302356 4.98804677 7.93177233
573 1 32.80283384 15.93735975 7.85223380
574 1 21.82500730 20.44980097 15.06648090
575 1 30.97961828 20.65758105 26.20340158
576 1 38.08497005 32.83596481 8.68405674
577 1 14.03444987 28.19661590 23.25937102
578 1 4.76656916 43.60941928 35.10714476
579 1 35.49038424 9.97330177 24.76930755
580 1 51.39626299 45.18879456 26.17440252
581 1 30.12515697 22.57961185 29.90857856
582 1 13.16641889 30.33211346 38.61643473
583 1 8.14454071 46.43880124 28.04997242
584 1 51.37187870 22.46079648 29.96665673
585 1 9.66981817 31.85216413 6.18363019
586 1 48.43957428 42.43113450 36.33419006
587 1 28.82491869 51.18901824 -0.50376058
588 1 17.67464735 10.82575612 6.26850529
589 1 19.76991994 15.07165953 19.53847273
590 1 16.13748121 52.00643838 24.70741723
591 1 30.66152239 1.75296559 8.50170674
592 1 4.53415515 46.97844315 18.69518306
593 1 30.36450859 25.58921118 24.10629218
594 1 26.90730935 35.89934214 40.08987124
595 1 43.69897663 48.40668819 34.32858820
596 1 26.35346370 24.67422775 13.06279731
597 1 49.51610435 50.62513770 20.07348726
598 1 1.21198000 44.03185077 30.93449575
599 1 48.37804416 55.79856344 39.77270944
600 1 17.97058020 31.33865470 33.51973323
601 1 28.49611568 29.08983777 25.96464027
602 1 48.85042906 45.31136265 15.74112300
603 1 15.39910877 30.31754565 30.46670855
604 1 29.42648699 31.15090645 14.51814225
605 1 13.23257694 32.70073962 42.75054559
606 1 5.48958708 45.08555306 31.73015732
607 1 15.47996297 47.68321951 39.33626210
608 1 45.60402919 33.02132850 34.34720489
609 1 26.63683982 35.96658964 1.16517544
610 1 24.22092738 9.42512335 28.58974029
611 1 3.75215767 47.16022867 29.58603512
612 1 41.49530595 1.56974107 23.24474144
613 1 52.09040228 44.26810775 20.37546846
614 1 42.34500136 15.99916897 32.04669500
615 1 10.42673432 23.77437871 39.14716669
616 1 32.69233947 40.87949279 41.48746011
617 1 32.32608720 44.62022648 30.65847008
618 1 19.84763702 47.21521637 40.32296683
619 1 10.59421270 9.75605162 18.73697456
620 1 51.77021160 25.06744643 -1.83060334
621 1 14.93483898 15.33251539 35.65184078
622 1 17.92539272 35.03750301 23.33290183
623 1 45.52390283 20.85220478 22.86190404
624 1 16.30863872 20.96787176 9.27773916
625 1 17.39235460 10.14415773 34.89599920
626 1 22.88991808 22.54871975 20.24035251
627 1 30.79438077 54.23435463 19.66616292
628 1 25.32144243 19.75166231 21.92446070
629 1 3.20765495 34.19380382 25.38380014
630 1 22.75221492 47.31717407 27.79004060
631 1 22.74881938 35.11980305 1.67216685
632 1 11.94110161 17.31689002 43.23525166
633 1 13.96543845 22.66727894 1.17801190
634 1 45.85042234 5.71044683 10.70192810
635 1 15.98466950 46.13206380 0.53225544
636 1 25.66564601 37.86391010 12.67236060
637 1 40.34307265 5.02568116 25.20396085
638 1 7.17194715 26.85333376 6.30058206
639 1 21.91939154 49.58978054 30.78391944
640 1 34.92087599 39.56601228 35.16213382
641 1 27.21805537 32.88058340 30.35716727
642 1 22.27980035 41.11887542 33.07830632
643 1 45.56188269 19.49062859 4.41581170
644 1 4.41668281 34.69904513 21.05928655
645 1 49.76249281 23.25916618 13.90458325
646 1 24.01002651 33.83430811 28.51272744
647 1 40.89958446 41.37280297 8.96020151
648 1 3.29126365 28.88565044 44.61512307
649 1 50.75906191 36.04894985 21.98430974
650 1 16.73019961 41.45012163 29.83077419
651 1 17.07034573 18.21584335 26.59737382
652 1 41.62550453 1.96367080 10.63722442
653 1 45.75283225 35.03332664 9.98633767
654 1 21.39643768 -0.47210247 9.23628687
655 1 14.10376913 18.57274544 6.66869086
656 1 34.78901345 8.07326243 35.31450548
657 1 24.07653330 3.98364262 21.13382879
658 1 9.56845132 29.51191714 22.81661513
659 1 36.80927665 34.89049759 30.55650720
660 1 48.26575118 12.96547071 17.94195349
661 1 37.57698020 14.90848324 0.82778719
662 1 7.72252067 23.52882576 16.11034530
663 1 33.33633301 50.60166695 22.64734645
664 1 17.16773800 33.37870418 -2.55118480
665 1 47.63124692 29.40496573 37.82664487
666 1 7.83766684 6.90752057 6.92642852
667 1 49.43081133 27.57272187 11.27072331
668 1 4.42695642 48.14743873 42.00292972
669 1 4.60483141 7.85027586 15.33443394
670 1 22.56069458 3.27037813 30.41729712
671 1 8.68334312 7.64100416 38.06131003
672 1 28.79965800 2.00240904 36.42417137
673 1 49.28192894 17.93670945 20.89398445
674 1 4.00121430 22.12162747 16.29769786
675 1 24.61685103 52.85021673 19.73822100
676 1 33.27569102 30.22067271 30.91201576
677 1 17.55961204 34.55306612 36.56610415
678 1 47.36503658 47.48606312 8.00423499
679 1 40.76380567 14.36138571 -1.61095838
680 1 24.19569140 24.84560782 17.77655818
681 1 -0.74424897 39.04245225 -0.87138067
682 1 13.68882454 44.89192279 27.95538284
683 1 4.28390090 4.48996324 10.45171803
684 1 25.37642605 14.74159835 5.60153001
685 1 3.66072579 18.95736641 -0.03620959
686 1 25.07001763 56.37321486 18.35168052
687 1 48.98950420 40.27352283 12.29965312
688 1 20.72790838 54.02604984 28.91587811
689 1 20.00966587 25.58820123 33.62861385
690 1 54.13807291 31.98669642 17.43019064
691 1 48.68359435 24.62080059 3.09948737
692 1 4.28195866 39.45036791 28.05364679
693 1 47.24619157 18.34715544 15.74413692
694 1 11.02329273 39.60523492 30.49637317
695 1 42.53631024 6.45360675 29.16986318
696 1 18.77331832 44.66323787 31.46539601
697 1 34.29600218 0.89514193 38.97596449
698 1 26.98520241 25.93650466 8.89494447
699 1 31.15105979 31.79008541 -2.50813383
700 1 31.42711934 6.42455845 0.60694184
701 1 5.80070540 14.54198601 1.88404612
702 1 33.18770044 7.31738109 27.06096991
703 1 14.59045408 32.41402953 22.50174137
704 1 25.49176482 20.96008407 9.90874704
705 1 26.78739041 32.13591709 0.73782649
706 1 11.15010214 8.47037489 31.77774803
707 1 22.74790532 13.21971303 21.30895538
708 1 39.74554685 10.84536341 32.68107422
709 1 11.49984343 35.18216727 34.50200188
710 1 20.06841613 30.05664653 4.32858518
711 1 53.35674832 9.76577494 42.08393982
712 1 37.13278441 42.53327805 23.92328004
713 1 52.88516948 19.15296157 30.97169141
714 1 21.42598442 2.67209361 6.55594240
715 1 31.37361399 20.84316229 1.56413374
716 1 25.08092731 20.78711507 17.70679344
717 1 15.67006411 38.29249674 25.62119708
718 1 31.42449067 2.42655493 41.30600365
719 1 25.07008486 16.26336250 19.23504074
720 1 46.83422616 8.10237816 26.63833336
721 1 31.52502210 19.90223954 35.85847731
722 1 18.45464049 28.11583268 22.13183279