LAMMPS data file for RMC ACC Config.

12960 atoms
8100 bonds
6480 angles
0 dihedrals
0 impropers
5 atom types
2 bond types
2 angle types
0 improper types

0.0 52.7680000000   xlo xhi
0.0 54.8381000000   ylo yhi
0.0 45.2676000000   zlo zhi
0.0000000000    0.0000000000    0.0000000000    xy xz yz

Masses

1	40.078 # Ca
2	12.011 # C
3	15.9994 # O
4	15.9994 # Ow
5	1.008 # H

Atoms

1 1 1 2.000000 38.09110847999999549529 11.18094020900000096219 18.96893510400000337768
2 2 1 2.000000 49.18135904000000380165 18.15360462399999974537 20.04222989999999882116
3 3 1 2.000000 48.18457151999999865666 17.47032189799999812863 25.77582411599999900886
4 4 1 2.000000 47.53446976000000034901 14.67906260799999884625 22.80400617600000146012
5 5 1 2.000000 3.40881279999999886599 36.29240296100000051638 15.80201380799999988369
6 6 1 2.000000 35.72129759999999976117 16.94497290000000333521 36.05654875200000475388
7 7 1 2.000000 4.32644832000000167938 11.20616573500000079378 40.58919353999999657390
8 8 1 2.000000 26.19931199999999549277 48.25368933299999696374 19.39173448800000087999
9 9 1 2.000000 27.83511999999999630973 51.28184921500000115202 22.38980763600000045699
10 10 1 2.000000 22.50871807999999774097 52.43948150599999991073 24.29964768000000319148
11 11 1 2.000000 17.73268639999999862766 50.27008626999999307827 8.20973193600000072934
12 12 1 2.000000 7.29675903999999952987 14.43503306300000055273 8.26360037999999974545
13 13 1 2.000000 17.13746336000000525246 28.49716704600000127812 35.10683450399999827596
14 14 1 2.000000 50.27312896000000108643 40.53029132900000064410 5.35244102399999999164
15 15 1 2.000000 51.27466559999999873298 43.69938512800000296465 2.85185880000000002710
16 16 1 2.000000 48.04368096000000321055 42.58562331699999958801 2.63457432000000002503
17 17 1 2.000000 45.71291839999999950805 44.04870382499999692527 4.56116337600000054664
18 18 1 2.000000 27.25150591999999960535 25.19097799699999740142 21.99054740400000085288
19 19 1 2.000000 2.42363423999999927361 28.91229146299999896996 17.93275974000000161368
20 20 1 2.000000 50.28104416000000043141 46.93976845699999955741 5.83997307600000059580
21 21 1 2.000000 47.48908928000000173597 37.56738878599999509333 0.36395150400000003676
22 22 1 2.000000 4.03147520000000181284 20.89002581400000124745 45.14492480399999863039
23 23 1 2.000000 25.42098400000000424370 8.04255574600000144869 35.14757534400000338337
24 24 1 2.000000 12.31182976000000017791 42.26646557499999801166 38.14700652000000502539
25 25 1 2.000000 12.73397376000000136287 37.12978074800000172218 36.53321658000000127231
26 26 1 2.000000 15.77921504000000041401 36.48543307299999582938 38.89165854000000166479
27 27 1 2.000000 51.44141247999999677631 4.70565736100000187037 42.63347835600000479417
28 28 1 2.000000 2.69169567999999825858 38.89282566299999643888 6.92594280000000050990
29 29 1 2.000000 46.53557151999999774716 5.27707036299999909801 5.27729680800000000573
30 30 1 2.000000 45.61054847999999850572 7.50733588999999934543 3.25111903200000007530
31 31 1 2.000000 7.04822175999999966933 1.87601140099999996735 2.60107629600000000991
32 32 1 2.000000 5.18128992000000021534 5.26719950499999978177 2.86815513599999993843
33 33 1 2.000000 1.85373983999999980554 4.98588005199999972916 0.13625547600000001425
34 34 1 2.000000 3.51804255999999959670 2.46826288099999979764 0.43909572000000002268
35 35 1 2.000000 33.04226623999999645775 4.93926766700000197119 37.97182090799999798492
36 36 1 2.000000 7.37010655999999730881 54.02649611999999734735 34.45271768400000667043
37 37 1 2.000000 9.96101535999999754267 54.72677865699999699700 37.14297115200000121149
38 38 1 2.000000 0.66909823999999773481 54.41200796299999353778 15.51094314000000018439
39 39 1 2.000000 49.28267359999999541742 28.68526172900000048571 17.02876576799999952527
40 40 1 2.000000 48.85314208000000490983 31.48748863899999861360 19.54383362400000123671
41 41 1 2.000000 33.99525632000000285871 50.70001697400000040261 13.79846983200000032355
42 42 1 2.000000 35.91917759999999759657 46.14680953099999527467 11.23270226400000026956
43 43 1 2.000000 22.30978272000000117714 10.47243195700000129023 22.34137130399999904284
44 44 1 2.000000 18.69148095999999981132 11.70245054000000095584 21.98602064399999989064
45 45 1 2.000000 19.04872031999999748564 13.47481793200000055322 24.92524591200000116942
46 46 1 2.000000 50.75542848000000617503 7.66252771300000024013 17.58012513599999948610
47 47 1 2.000000 32.04706175999999828719 30.77404495799999750716 10.47809137200000151324
48 48 1 2.000000 26.98924895999999407081 36.83200986499999629586 7.50401005199999993067
49 49 1 2.000000 24.07645535999999708565 35.87234311499999961370 15.77440057200000111948
50 50 1 2.000000 24.58091743999999678749 33.39749966200000130812 7.24870078799999983943
51 51 1 2.000000 26.43887871999999816808 34.92693427100000036489 10.92442990800000046647
52 52 1 2.000000 25.61569791999999523568 30.17630966799999825412 11.08331918400000049019
53 53 1 2.000000 24.95451487999999784506 33.03885848800000246683 13.50649381200000220815
54 54 1 2.000000 27.46257791999999753330 30.73785181199999883006 5.64486972000000086780
55 55 1 2.000000 25.43786976000000166209 27.92081861499999817511 5.63310014400000014234
56 56 1 2.000000 12.07120768000000055054 31.95416086999999905061 23.92890603600000076767
57 57 1 2.000000 10.17525344000000053768 33.69472216399999808800 38.78527968000000214488
58 58 1 2.000000 16.69843360000000132004 18.23037796399999876940 10.37533391999999921040
59 59 1 2.000000 33.51612287999999750809 29.00387109000000052106 1.17469422000000012218
60 60 1 2.000000 11.54088927999999825147 50.00083119899999672953 35.88543722400000035577
61 61 1 2.000000 3.82515231999999860690 44.63437473300000135623 22.09149415200000277082
62 62 1 2.000000 50.33170143999999623929 11.83515874200000084215 13.17241892400000224939
63 63 1 2.000000 43.21013216000000056738 39.81246059999999431511 16.83366241199999890910
64 64 1 2.000000 23.62528895999999534183 50.41540723499999643309 11.35401943199999941214
65 65 1 2.000000 37.13178623999999672378 28.06833310399999703577 18.53346079199999962839
66 66 1 2.000000 32.77314943999999741209 22.23026897800000512007 37.00037821200000109911
67 67 1 2.000000 3.96182144000000002748 29.58844523600000542274 33.79181072400000118705
68 68 1 2.000000 6.21395968000000031850 32.63744359599999711463 35.99996425200000516043
69 69 1 2.000000 8.80064704000000119777 31.91303229500000071539 33.92353943999999899006
70 70 1 2.000000 9.05815488000000001989 29.29177111500000307842 36.70659148800000082247
71 71 1 2.000000 38.34703327999999800113 25.95925977800000339357 32.27127203999999949247
72 72 1 2.000000 30.99961696000000799245 22.11291544400000219639 33.58584314400000181422
73 73 1 2.000000 12.86958751999999961413 33.48743414599999823622 29.65027800000000368641
74 74 1 2.000000 11.63534399999999990882 9.26709051899999991520 2.83782584399999970870
75 75 1 2.000000 0.93188287999999974698 8.23284395299999971485 4.61412646800000025848
76 76 1 2.000000 4.72748511999999898592 8.96822287399999851232 5.30762610000000023547
77 77 1 2.000000 13.73023360000000003822 5.14820082800000022871 2.68482135600000004771
78 78 1 2.000000 11.55619200000000112993 0.69918577500000089753 16.09942194000000270648
79 79 1 2.000000 45.17310176000000154772 39.20211254699999869899 20.94893992800000148691
80 80 1 2.000000 45.33509951999999998407 41.97746878800000303045 19.19029366799999891668
81 81 1 2.000000 0.32610623999999827083 32.34131785599999631131 4.22618313600000039543
82 82 1 2.000000 12.45852480000000106486 12.84966359199999885732 10.14854324400000074036
83 83 1 2.000000 13.85371072000000047808 14.12574617899999829262 13.13122540800000059846
84 84 1 2.000000 9.39850847999999849947 16.98774661799999918799 12.88361163599999947849
85 85 1 2.000000 10.82324447999999783576 16.50901000499999682347 8.48405359200000042108
86 86 1 2.000000 31.23232383999999939306 20.69918922600000144030 11.00229017999999925337
87 87 1 2.000000 35.06644672000000184653 27.32418008699999845135 12.75369362400000028401
88 88 1 2.000000 32.28346239999999767178 23.35774031399999728364 8.38537022399999898425
89 89 1 2.000000 38.29004384000000271726 18.74475934200000182273 45.25673577599999930499
90 90 1 2.000000 26.27002111999999911518 11.55603281299999984810 2.35617857999999991137
91 91 1 2.000000 30.05981888000000168404 13.87897472899999762319 5.31803764800000067225
92 92 1 2.000000 37.53862751999999858299 42.05204860399999944320 4.89614361600000069785
93 93 1 2.000000 34.53665600000000068803 44.17044440699999796607 21.33959931600000103913
94 94 1 2.000000 36.92915711999999928139 40.55825876000000107524 20.27173663199999964490
95 95 1 2.000000 35.93553568000000097982 40.73374067999999681433 16.66074018000000123152
96 96 1 2.000000 33.53511935999999593605 36.12624351800000255253 28.75216881599999751984
97 97 1 2.000000 38.91059552000000110183 16.12185301899999956277 33.61164567600000196990
98 98 1 2.000000 4.92905888000000125260 14.60667631599999971570 30.48229648799999935704
99 99 1 2.000000 29.45034847999999882973 11.91028693900000057226 27.74224866000000133681
100 100 1 2.000000 30.65082048000000369825 15.22744360799999974176 28.31171506800000159387
101 101 1 2.000000 6.20709983999999970194 17.29538835900000037782 20.14996678800000040610
102 102 1 2.000000 9.42700319999999969411 14.70593327700000152447 18.80868780000000128894
103 103 1 2.000000 2.16876479999999993709 21.09950735600000015779 20.97926921999999905211
104 104 1 2.000000 46.24640288000000509783 49.87360680699999448962 5.57289423599999977910
105 105 1 2.000000 39.66728864000000243095 41.27005729799999755869 43.73981850000000548562
106 106 1 2.000000 4.80294336000000221532 1.23988944100000231252 35.59255585200000382429
107 107 1 2.000000 15.55389568000000188874 17.23451806800000341013 32.90003900399999992032
108 108 1 2.000000 44.46284448000000111278 40.90538393299999597730 32.03859657599999621880
109 109 1 2.000000 38.69899584000000203332 33.77643093300000032286 25.08187180800000248837
110 110 1 2.000000 24.32288192000000037751 9.78969761199999943813 5.28272892000000027224
111 111 1 2.000000 11.11610688000000202180 5.64064696600000026194 15.96678787199999938196
112 112 1 2.000000 13.03316832000000147218 9.60873188200000072356 19.41617899200000252335
113 113 1 2.000000 28.31583648000000152933 25.19701018800000014153 2.25251577600000008061
114 114 1 2.000000 28.79496992000000332723 27.63730563800000084029 45.03899862000000098305
115 115 1 2.000000 26.06633664000000294436 25.82326129000000136671 43.82809032000000115659
116 116 1 2.000000 21.10403392000000266648 22.77974673999999666307 6.27227865600000011881
117 117 1 2.000000 37.63994207999999730418 45.26336773999999962825 24.03483222000000196772
118 118 1 2.000000 41.98696991999999994505 44.42653833399999285803 12.40332240000000219027
119 119 1 2.000000 42.52731424000000259866 38.47715286500000075876 40.23610625999999967917
120 120 1 2.000000 23.46381887999999804606 50.54701867499999679012 28.34340238799999767139
121 121 1 2.000000 30.09939487999999840895 13.48633393300000093973 17.80872651600000011740
122 122 1 2.000000 24.55664416000000116469 13.93929663900000193166 20.63161405199999975935
123 123 1 2.000000 26.75759743999999784592 12.95166245800000126565 17.06271646800000141297
124 124 1 2.000000 2.82097728000000191884 4.65246440400000249582 39.31491060000000459240
125 125 1 2.000000 51.00291040000000464261 52.21025824800000236792 34.43053656000000017912
126 126 1 2.000000 12.76035775999999799524 48.70116822899999675656 15.85452422400000038749
127 127 1 2.000000 2.74762975999999792265 44.15618650099999342729 10.66640458800000068607
128 128 1 2.000000 35.39255295999999617607 37.69954860699999699136 0.89131904399999994926
129 129 1 2.000000 38.53488735999999903470 37.80099909199999785869 2.02844115600000041155
130 130 1 2.000000 17.46937407999999791741 35.02838475600000123222 2.61239319600000019506
131 131 1 2.000000 7.07829952000000073298 33.29714593899999641735 30.35102044799999987390
132 132 1 2.000000 16.19924831999999526033 51.03781966999999752943 16.18633573199999986514
133 133 1 2.000000 11.53719551999999914926 52.39780454999999648180 17.92868565600000252402
134 134 1 2.000000 32.83172191999999967038 35.66944214499999787904 37.25206606800000486146
135 135 1 2.000000 36.55028288000000458169 36.64446356299999507655 35.90490229200000271703
136 136 1 2.000000 37.93702592000000350936 37.88106271799999547056 39.16779089999999996508
137 137 1 2.000000 37.71223424000000079559 34.97903046599999754562 33.41246823600000226406
138 138 1 2.000000 47.34714336000000400873 9.75185932299999969075 5.60775028800000008289
139 139 1 2.000000 45.19315360000000225682 12.18996124899999955460 7.53026526000000018257
140 140 1 2.000000 45.08234080000000432165 13.93545797200000002647 5.06816049599999995934
141 141 1 2.000000 49.80665984000000179321 33.06847106200000041554 34.27843742400000337511
142 142 1 2.000000 45.64854143999999536163 31.30268424200000154656 33.46135724399999844536
143 143 1 2.000000 44.90662335999999754677 35.19947962799999885419 37.59021504000000390988
144 144 1 2.000000 40.83082303999999851385 35.06348113999999327461 37.58704630800000501267
145 145 1 2.000000 40.24931967999999926633 35.50273432099999837419 43.24594898400000175798
146 146 1 2.000000 47.17248127999999951498 30.50808017299999974625 39.62363563200000271536
147 147 1 2.000000 26.27846399999999960073 0.19083658800000100064 16.23748812000000185662
148 148 1 2.000000 19.03711135999999726209 49.79134965699999781918 15.83053239600000239307
149 149 1 2.000000 22.34408191999999715449 50.49766438499999310352 18.65839936800000131711
150 150 1 2.000000 45.96673248000000455704 44.92172637699999171446 10.03990100399999896297
151 151 1 2.000000 43.03283168000000102893 42.03724231699999336342 9.44417938800000023036
152 152 1 2.000000 48.84839295999999819742 45.74594301999999856889 12.48570943200000016304
153 153 1 2.000000 45.88283135999999728938 38.33621894800000262649 14.66443902000000143460
154 154 1 2.000000 27.52273344000000321330 25.86274472199999863165 8.72578257600000029015
155 155 1 2.000000 34.29022944000000450160 0.05867676700000016426 2.76222895200000007065
156 156 1 2.000000 43.22596255999999925734 44.53731129599999860602 40.04869839599999892243
157 157 1 2.000000 35.37039039999999801012 26.12651598300000088670 28.77887670000000142068
158 158 1 2.000000 43.11462208000000373431 18.31098997100000147498 29.90468191200000092067
159 159 1 2.000000 36.59671872000000547587 22.93877722999999946296 27.47652784799999992060
160 160 1 2.000000 6.33374303999999721526 49.89718718999999680364 1.48885136400000006596
161 161 1 2.000000 6.28097503999999684510 46.54109546999999480477 3.19227115200000000073
162 162 1 2.000000 9.36104320000000100777 0.35096384000000030445 5.14104133200000035231
163 163 1 2.000000 11.47440160000000375362 0.56483243000000260547 44.05850240400000217278
164 164 1 2.000000 49.24784671999999829950 1.59798223400000205530 34.61296498800000165375
165 165 1 2.000000 39.25411520000000109576 21.22179631899999918687 16.90111113600000081192
166 166 1 2.000000 38.99555199999999643978 23.47948089599999832444 11.45270280000000084897
167 167 1 2.000000 38.20033824000000066690 25.61487650999999843293 14.89530378000000077066
168 168 1 2.000000 39.98020288000000022066 13.61575184900000223820 20.37404140800000007516
169 169 1 2.000000 10.07499423999999876855 18.44150464899999875001 19.36231054799999995453
170 170 1 2.000000 25.38615712000000002035 7.39382102300000099149 14.60966522400000222603
171 171 1 2.000000 21.27764063999999777366 7.48540065000000076623 16.25242642799999970293
172 172 1 2.000000 23.77356703999999965049 4.13314759700000067255 15.09583924800000076516
173 173 1 2.000000 18.01605055999999649430 48.66771698800000223173 26.05965196800000072130
174 174 1 2.000000 16.50635807999999826734 2.43316649700000109391 24.55088286000000152853
175 175 1 2.000000 28.83718431999999864956 51.10691567599999984850 1.20321280799999996702
176 176 1 2.000000 49.57395295999999973446 13.50881755400000194811 39.42038410800000036716
177 177 1 2.000000 7.38277088000000070167 8.15607061300000069082 16.16505996000000067170
178 178 1 2.000000 6.55747936000000120060 0.02796743100000106258 17.32300516800000167450
179 179 1 2.000000 3.11225663999999779818 52.63635028499999890528 17.37461023200000198585
180 180 1 2.000000 4.00298048000000061819 1.54533765800000089108 16.04193208799999936787
181 181 1 2.000000 36.89063647999999773219 54.24694528199999865592 32.92901026799999897321
182 182 1 2.000000 9.32991008000000121569 2.18913695200000146812 29.34155296799999845803
183 183 1 2.000000 10.27920640000000140901 1.94291388300000211764 34.03580308800000153724
184 184 1 2.000000 13.50913567999999997937 54.54142587899999483625 35.86551948000000322736
185 185 1 2.000000 16.02722464000000357487 0.04716076600000197738 32.34324752399999880481
186 186 1 2.000000 20.81908672000000493085 7.93233116500000168259 32.42970864000000119631
187 187 1 2.000000 14.21569919999999775939 20.57525511999999778823 1.87181525999999998078
188 188 1 2.000000 13.02103167999999833171 19.85742439099999856467 6.03054967200000024974
189 189 1 2.000000 13.54237951999999722830 25.14326884999999833781 5.91240123600000000437
190 190 1 2.000000 37.66896447999999963940 45.20469097299999816642 31.34600229599999821062
191 191 1 2.000000 3.69112160000000066873 6.34092950300000079977 19.86025414800000277182
192 192 1 2.000000 50.66097375999999741225 10.92320113899999967089 6.81005774399999985746
193 193 1 2.000000 52.34427296000000495724 7.23753243799999967933 11.47533660000000033108
194 194 1 2.000000 44.51930623999999880880 10.82778284499999976731 17.74716258000000124184
195 195 1 2.000000 7.11629247999999847707 50.37427865999999454516 8.40755134800000014650
196 196 1 2.000000 50.59659680000000037126 19.63039465700000008042 10.40521053600000023209
197 197 1 2.000000 25.07324288000000223064 16.11582082799999682265 26.40821248800000020651
198 198 1 2.000000 23.47384479999999840061 52.71038172000000088246 3.67029700799999991645
199 199 1 2.000000 19.02603007999999462641 51.01917471599999487353 0.34222305600000002546
200 200 1 2.000000 21.32143808000000007041 42.11511241899999191673 38.14247976000000051044
201 201 1 2.000000 39.35015296000000262211 44.26421755799999857572 9.94619707200000036096
202 202 1 2.000000 37.24787583999999895923 39.79929945599999285832 13.26114341999999979294
203 203 1 2.000000 13.09965599999999774639 49.20732389199999801122 32.24818556399999636142
204 204 1 2.000000 30.51204064000000215628 4.03992282699999982754 6.36688793999999980144
205 205 1 2.000000 19.40807039999999972224 4.30369408800000119442 25.91253226799999964669
206 206 1 2.000000 14.98980575999999942383 25.27488029000000224755 39.59375901599999991731
207 207 1 2.000000 19.18908320000000244931 19.39404244600000026821 33.43646006400000203485
208 208 1 2.000000 25.41201343999999551215 46.40125831499999264906 5.38412834400000051005
209 209 1 2.000000 46.39679167999999975791 41.90069544799999334828 12.54500998800000033384
210 210 1 2.000000 31.17480672000000296862 28.88980784199999618522 14.12303852400000003797
211 211 1 2.000000 25.19197087999999595809 36.03905093899999911855 19.71585050399999872184
212 212 1 2.000000 29.02609375999999485884 32.44770376999999683676 20.17169523600000147212
213 213 1 2.000000 8.74260223999999830369 42.23082080999999732285 6.76750619999999969423
214 214 1 2.000000 41.25824383999999867001 46.08429409699999723671 32.19114838800000200081
215 215 1 2.000000 41.62234304000000406631 48.29372114599999576967 29.61180054000000083647
216 216 1 2.000000 44.37841568000000336269 48.31401124299999594314 32.46411201600000140388
217 217 1 2.000000 43.52199103999999607595 46.11116476600000169128 25.40191374000000124056
218 218 1 2.000000 52.20865919999999960055 29.44805970000000527875 34.75465257599999802096
219 219 1 2.000000 2.25319360000000035171 25.74374604500000174312 34.18156476000000054682
220 220 1 2.000000 44.62220383999999739899 22.47320176100000210795 40.51223862000000508488
221 221 1 2.000000 11.47862304000000222004 16.47994581200000396848 44.03858465999999793894
222 222 1 2.000000 4.75914591999999903038 23.18061325099999692156 4.72910617199999983029
223 223 1 2.000000 6.33110464000000039420 25.07143093900000252461 31.92769095599999928936
224 224 1 2.000000 4.01775552000000057973 21.26182813200000154552 30.00019654800000168393
225 225 1 2.000000 3.49429696000000111766 20.50615911400000257458 39.04737908399999923859
226 226 1 2.000000 3.29061248000000139413 24.69578995400000209770 40.31758794000000278857
227 227 1 2.000000 45.38575679999999579195 23.03200200000000208433 35.07016774800000291634
228 228 1 2.000000 46.45272575999999986607 23.10438829199999943853 43.33331545200000078921
229 229 1 2.000000 43.99637536000000181957 25.29242848200000182146 38.00803498799999857738
230 230 1 2.000000 50.98602464000000367150 22.56752329300000425860 42.20796291599999960908
231 231 1 2.000000 51.54483776000000005979 20.00000345100000131993 40.24832851200000050085
232 232 1 2.000000 7.05244319999999991211 20.43322444100000012668 7.42388640000000066266
233 233 1 2.000000 7.42604064000000008150 23.21406449199999855182 25.81068016800000108901
234 234 1 2.000000 2.44737983999999908491 25.34397629600000101391 6.30215527200000025232
235 235 1 2.000000 52.37593375999999523174 23.03529228599999711946 23.34540667199999930403
236 236 1 2.000000 6.78596479999999857569 23.69993005799999963301 13.34353045199999954207
237 237 1 2.000000 4.07474496000000030449 24.66398385599999798501 22.36264707600000178900
238 238 1 2.000000 51.51634304000000241786 20.43103091700000106812 18.88156863600000079373
239 239 1 2.000000 6.32266175999999902047 23.82825121200000140220 18.28132026000000109889
240 240 1 2.000000 47.81044640000000356395 8.76203161800000174253 17.33975417999999990570
241 241 1 2.000000 48.72597120000000359141 13.58997794200000264198 26.23166884800000175915
242 242 1 2.000000 39.42402815999999887708 5.63296963200000178063 22.25355216000000169174
243 243 1 2.000000 39.76385408000000154516 9.27915490100000184270 21.29750044800000097212
244 244 1 2.000000 41.52788831999999530353 11.52861376300000095796 28.90698400800000200661
245 245 1 2.000000 40.93055455999999736605 12.84747006799999979876 32.82036802799999719582
246 246 1 2.000000 46.72342559999999878073 17.78618935400000466984 39.39322354800000169917
247 247 1 2.000000 0.41581184000000165346 7.45085264700000049487 34.57177147200000177918
248 248 1 2.000000 3.24839808000000118682 10.48559310100000097066 29.36826085199999880615
249 249 1 2.000000 51.50367872000000346588 11.55219414599999971927 27.38146588800000102992
250 250 1 2.000000 3.41092352000000076373 13.34649677800000233674 23.19964500000000029445
251 251 1 2.000000 52.72261952000000206908 10.24869250900000139382 22.46947861199999962878
252 252 1 2.000000 5.02351360000000202177 6.90960060000000186875 24.21816600000000363480
253 253 1 2.000000 50.54541183999999987009 6.25483368600000133597 26.34664855200000133095
254 254 1 2.000000 52.14164384000000040942 15.29544285200000075520 36.27247520399999558549
255 255 1 2.000000 50.58393248000000141928 11.47322728199999986032 36.06424424400000106061
256 256 1 2.000000 0.31660800000000038912 14.53264488100000306758 20.49264252000000041676
257 257 1 2.000000 50.47311967999999637868 4.74733431700000174658 36.96054272400000684229
258 258 1 2.000000 7.56534816000000098768 5.63900182300000096802 20.91182049600000070200
259 259 1 2.000000 6.07834592000000117906 11.92235132100000072342 26.02434324000000032129
260 260 1 2.000000 46.57673056000000144650 15.37440971600000061414 29.33747888400000292108
261 261 1 2.000000 49.98765407999999865751 22.54120100500000489774 37.68301362000000409580
262 262 1 2.000000 9.86972672000000095238 22.60810348700000460553 41.24557374000000464775
263 263 1 2.000000 43.16739008000000410448 21.22179631899999918687 23.91125167200000234402
264 264 1 2.000000 37.74231200000000541195 18.51114903599999905737 23.49297904800000225123
265 265 1 2.000000 41.40441119999999841639 18.76395267699999891420 23.22771091200000270760
266 266 1 2.000000 37.07690752000000600219 1.31885630500000128329 20.75836333199999828025
267 267 1 2.000000 39.90316159999999712227 1.01669837400000107053 19.27856548799999814037
268 268 1 2.000000 39.82506495999999884816 50.99943300000000334649 20.91861063600000036899
269 269 1 2.000000 40.07571295999999705373 53.66182275499999576596 12.95287106399999998985
270 270 1 2.000000 16.61453247999999760509 16.83365155699999959893 25.69388976000000113231
271 271 1 2.000000 23.93978624000000010597 37.80593452099999751681 38.06235610800000301879
272 272 1 2.000000 23.43268576000000535942 9.76118180000000101870 41.42075935199999747738
273 273 1 2.000000 39.10900319999999652509 12.87379235600000093598 41.28676725599999741689
274 274 1 2.000000 10.27656799999999748252 51.64268391299999194644 13.80163856400000099711
275 275 1 2.000000 3.03627072000000097773 2.67609928000000074633 12.69756180000000256314
276 276 1 2.000000 7.02816992000000073659 0.88399017200000029604 7.57462750800000073070
277 277 1 2.000000 51.69469887999999713202 2.16939523599999972703 3.24297086400000011963
278 278 1 2.000000 1.49597280000000254496 2.60700327400000242406 42.58866343200000414981
279 279 1 2.000000 3.98978847999999741702 51.61965191099999827884 8.65516512000000126648
280 280 1 2.000000 49.39823552000000006501 1.48666089100000253787 45.01002735600000193017
281 281 1 2.000000 51.98439520000000158007 4.61407773400000031927 6.77972845199999962773
282 282 1 2.000000 0.89125151999999696617 50.40279447199999651730 2.44988251200000028973
283 283 1 2.000000 51.84192160000000626496 47.02750941699999742696 2.46753687600000004565
284 284 1 2.000000 30.39489568000000119241 5.73058145000000074276 11.71797093599999861624
285 285 1 2.000000 32.77526016000000197437 4.81204327500000061946 14.64044719199999988746
286 286 1 2.000000 15.91957792000000182497 12.88805026200000192205 42.87973410000000029640
287 287 1 2.000000 44.37630495999999880041 39.11875863499999894657 44.20381140000000641521
288 288 1 2.000000 48.07164800000000326463 43.97522077099999648908 44.31516969600000521723
289 289 1 2.000000 38.08635936000000299373 18.81769401500000071792 14.75904830400000022905
290 290 1 2.000000 45.42744352000000418457 16.51778410100000016314 32.10197121600000258468
291 291 1 2.000000 0.54245504000000044353 20.52919111599999979489 26.56438570799999965288
292 292 1 2.000000 1.09968512000000107065 8.34306853400000036913 25.25026727999999920371
293 293 1 2.000000 34.93663743999999837797 30.77130305300000046032 17.12518575600000048098
294 294 1 2.000000 34.62583392000000515054 47.67021194899999869676 32.54921510399999817764
295 295 1 2.000000 40.37912896000000273489 1.09402009500000030329 6.69869944800000016727
296 296 1 2.000000 39.06467808000000019319 15.69082555300000159093 23.61339086399999942500
297 297 1 2.000000 33.75252351999999689269 21.18505479199999896878 22.99548812400000485923
298 298 1 2.000000 30.91096672000000111780 40.53522675799999319679 37.79572994400000141013
299 299 1 2.000000 40.38915487999999953672 41.93908211800000174208 38.08317920400000389236
300 300 1 2.000000 44.13040608000000020184 32.78715160899999858657 28.01113820399999809752
301 301 1 2.000000 25.73337055999999734013 43.70322379499999954078 20.10243580799999918440
302 302 1 2.000000 23.07122495999999500782 43.94835010199999913993 25.84282016400000259182
303 303 1 2.000000 32.40799488000000394550 41.63034361499999391754 22.68314168400000241377
304 304 1 2.000000 37.14392288000000519332 36.14050142399999288045 27.56253628800000043952
305 305 1 2.000000 30.07512159999999568072 40.65806410199999731958 13.70023913999999898294
306 306 1 2.000000 26.45945824000000001774 41.86559906400000130589 13.15974399600000133148
307 307 1 2.000000 40.15750335999999975911 33.82468846099999382204 30.71135054400000186092
308 308 1 2.000000 33.61057759999999916545 43.44877501099999506096 31.94941940400000390810
309 309 1 2.000000 34.21160512000000153421 39.20101578499999561700 29.66929039200000062237
310 310 1 2.000000 30.29569183999999992807 34.82932245299999607369 21.49215112799999971571
311 311 1 2.000000 35.62420448000000305910 24.17098933700000173985 35.61518965199999797733
312 312 1 2.000000 28.98651775999999813394 41.09293023499999719661 22.50840874800000079858
313 313 1 2.000000 37.42992543999999810467 37.19942513499999847681 30.38587650000000195405
314 314 1 2.000000 39.73377632000000403423 30.76088381399999960308 28.65982291200000275921
315 315 1 2.000000 30.68723039999999713245 40.64270943399999680423 27.90475934400000213031
316 316 1 2.000000 46.96088160000000044647 21.15215193199999887952 14.77262858400000133940
317 317 1 2.000000 49.50377152000000080534 24.21211791200000007507 15.67390650000000107411
318 318 1 2.000000 30.44502527999999941244 50.16644226100000025781 13.56896310000000127616
319 319 1 2.000000 26.23255583999999984712 3.46192925300000098332 17.14329279600000077721
320 320 1 2.000000 33.73458240000000074588 16.54410638900000307672 39.22437540000000666396
321 321 1 2.000000 32.07872256000000277254 13.22859486300000142478 42.14504095200000222121
322 322 1 2.000000 39.53220256000000176755 16.62471839600000222958 42.96755324400000120022
323 323 1 2.000000 48.43047039999999725524 35.43967050599999168981 3.80428910400000042102
324 324 1 2.000000 40.86934368000000006305 22.84500407900000240602 38.42857099200000448036
325 325 1 2.000000 37.68004575999999872238 30.42253273699999738255 3.68116123200000044946
326 326 1 2.000000 50.55860384000000351534 30.85739886999999725958 5.92145475600000104066
327 327 1 2.000000 45.45488287999999954536 26.37602933799999860298 12.78764432400000217172
328 328 1 2.000000 48.80512320000000414666 27.77440088800000239644 10.61661022799999898325
329 329 1 2.000000 43.35049503999999842563 21.09841059400000418123 43.28714250000000163254
330 330 1 2.000000 43.19377407999999718413 19.71155504500000077428 40.31034512400000124899