region box block 0 52.794504272175 0 54.794296100667 0 45.195295323908
units metal
dimension 3
boundary p p p
atom_style full
create_box 1 box
Created orthogonal box = (0 0 0) to (52.794504 54.794296 45.195295)
  2 by 4 by 2 MPI processor grid
create_atoms 1 random 1620 51 box
Created 1620 atoms
  using lattice units in orthogonal box = (0 0 0) to (52.794504 54.794296 45.195295)
  create_atoms CPU = 0.113 seconds
mass 1 40.078
pair_style hybrid/overlay lj/cut 25 gauss/cut 25 gauss/cut 25
pair_coeff 1 1 lj/cut 0.009507177838705264 3.7584971993521488
pair_coeff 1 1 gauss/cut 1 -0.0597999248039827 5.991246456844763 0.601172550524922
pair_coeff 1 1 gauss/cut 2 0.0726183915985775 5.919659952808235 0.9307156951487607
run 1
WARNING: No fixes with time integration, atoms won't move (src/verlet.cpp:60)
Generated 0 of 0 mixed pair_coeff terms from geometric mixing rule
Neighbor list info ...
  update every 1 steps, delay 10 steps, check yes
  max neighbors/atom: 2000, page size: 100000
  master list distance cutoff = 27
  ghost atom cutoff = 27
  binsize = 13.5, bins = 4 5 4
  3 neighbor lists, perpetual/occasional/extra = 3 0 0
  (1) pair lj/cut, perpetual
      attributes: half, newton on
      pair build: half/bin/newton
      stencil: half/bin/3d
      bin: standard
  (2) pair gauss/cut, perpetual, copy from (1)
      attributes: half, newton on
      pair build: copy
      stencil: none
      bin: none
  (3) pair gauss/cut, perpetual, copy from (1)
      attributes: half, newton on
      pair build: copy
      stencil: none
      bin: none
Per MPI rank memory allocation (min/avg/max) = 6.99 | 6.995 | 7.003 Mbytes
   Step          Temp          E_pair         E_mol          TotEng         Press     
         0   0              2.1264092e+11  0              2.1264092e+11  1.0423175e+13
         1   0              2.1264092e+11  0              2.1264092e+11  1.0423175e+13
Loop time of 0.106229 on 16 procs for 1 steps with 1620 atoms

Performance: 0.813 ns/day, 29.508 hours/ns, 9.414 timesteps/s
85.0% CPU use with 16 MPI tasks x 1 OpenMP threads

MPI task timing breakdown:
Section |  min time  |  avg time  |  max time  |%varavg| %total
---------------------------------------------------------------
Pair    | 0.0063415  | 0.0095864  | 0.02192    |   4.6 |  9.02
Bond    | 9.58e-07   | 1.8826e-06 | 1.0968e-05 |   0.0 |  0.00
Neigh   | 0          | 0          | 0          |   0.0 |  0.00
Comm    | 0.057449   | 0.077319   | 0.084606   |   2.7 | 72.79
Output  | 0.016961   | 0.018382   | 0.019786   |   1.0 | 17.30
Modify  | 1.778e-06  | 3.3553e-06 | 8.044e-06  |   0.0 |  0.00
Other   |            | 0.0009357  |            |       |  0.88

Nlocal:         101.25 ave         120 max          85 min
Histogram: 1 1 3 3 2 2 1 0 2 1
Nghost:        5031.25 ave        5128 max        4960 min
Histogram: 1 3 2 1 4 1 1 2 0 1
Neighs:        51674.7 ave       61218 max       43558 min
Histogram: 4 0 2 2 0 2 2 1 1 2

Total # of neighbors = 826795
Ave neighs/atom = 510.36728
Ave special neighs/atom = 0
Neighbor list builds = 0
Dangerous builds = 0
thermo 1000
neighbor 2.0 bin
neigh_modify every 1 delay 0 check yes one 200000 page 2000000000
minimize 0.0 1.0e-8 100 1000
Generated 0 of 0 mixed pair_coeff terms from geometric mixing rule
Neighbor list info ...
  update every 1 steps, delay 0 steps, check yes
  max neighbors/atom: 200000, page size: 2000000000
  master list distance cutoff = 27
  ghost atom cutoff = 27
  binsize = 13.5, bins = 4 5 4
  3 neighbor lists, perpetual/occasional/extra = 3 0 0
  (1) pair lj/cut, perpetual
      attributes: half, newton on
      pair build: half/bin/newton
      stencil: half/bin/3d
      bin: standard
  (2) pair gauss/cut, perpetual, copy from (1)
      attributes: half, newton on
      pair build: copy
      stencil: none
      bin: none
  (3) pair gauss/cut, perpetual, copy from (1)
      attributes: half, newton on
      pair build: copy
      stencil: none
      bin: none
Per MPI rank memory allocation (min/avg/max) = 2.29e+04 | 2.29e+04 | 2.29e+04 Mbytes
   Step          Temp          E_pair         E_mol          TotEng         Press     
         1   0              2.1264092e+11  0              2.1264092e+11  1.0423175e+13
       101   0             -48.93413       0             -48.93413       762.78846    
Loop time of 7.00609 on 16 procs for 100 steps with 1620 atoms

86.1% CPU use with 16 MPI tasks x 1 OpenMP threads

Minimization stats:
  Stopping criterion = max iterations
  Energy initial, next-to-last, final = 
      212640917192.742  -48.6895368303982   -48.934129687694
  Force two-norm initial, final = 1.0732578e+13 0.47180167
  Force max component initial, final = 6.2065507e+12 0.063777941
  Final line search alpha, max atom move = 1 0.063777941
  Iterations, force evaluations = 100 115

MPI task timing breakdown:
Section |  min time  |  avg time  |  max time  |%varavg| %total
---------------------------------------------------------------
Pair    | 0.78068    | 1.0044     | 1.3178     |  16.8 | 14.34
Bond    | 0.00011189 | 0.00014264 | 0.00016856 |   0.0 |  0.00
Neigh   | 0.011146   | 0.013692   | 0.025181   |   2.7 |  0.20
Comm    | 2.823      | 3.0612     | 3.3163     |   8.4 | 43.69
Output  | 6.5993e-05 | 6.7705e-05 | 7.1823e-05 |   0.0 |  0.00
Modify  | 0          | 0          | 0          |   0.0 |  0.00
Other   |            | 2.927      |            |       | 41.77

Nlocal:         101.25 ave         113 max          92 min
Histogram: 1 3 1 2 4 1 1 2 0 1
Nghost:        5046.56 ave        5121 max        4997 min
Histogram: 5 1 0 1 4 2 0 1 0 2
Neighs:        51670.2 ave       58452 max       45052 min
Histogram: 2 2 2 0 2 1 2 2 2 1

Total # of neighbors = 826724
Ave neighs/atom = 510.32346
Ave special neighs/atom = 0
Neighbor list builds = 7
Dangerous builds = 0
timestep 0.0005
fix 1 all nvt temp 300.0 300.0 $(100.0*dt)
fix 1 all nvt temp 300.0 300.0 0.050000000000000002776
fix removeMomentum all momentum 1 linear 1 1 1
dump 1 all custom 1000 ljg2_nvt_51/ca.traj id mol type mass x y z
dump_modify 1 sort id
run 2000000
Generated 0 of 0 mixed pair_coeff terms from geometric mixing rule
Per MPI rank memory allocation (min/avg/max) = 2.289e+04 | 2.289e+04 | 2.289e+04 Mbytes
   Step          Temp          E_pair         E_mol          TotEng         Press     
       101   0             -48.93413       0             -48.93413       762.78846    
      1000   167.91625     -45.819815      0             -10.679616      1190.1157    
      2000   284.30467     -10.698058      0              48.798999      1824.876     
      3000   308.70794     -6.2305798      0              58.373402      2140.2366    
      4000   305.6822      -6.0486918      0              57.922087      2072.9059    
      5000   296.03607     -5.3611844      0              56.590928      2038.7961    
      6000   300.8112      -4.7021791      0              58.249234      2107.5773    
      7000   310.87089     -5.466871       0              59.589757      2128.7766    
      8000   302.56604     -3.7599499      0              59.558703      2146.2819    
      9000   301.89179     -4.2740354      0              58.903517      2075.1019    
     10000   298.24894     -3.9076526      0              58.507552      2071.2243    
     11000   293.47581     -4.252375       0              57.163947      2055.2286    
     12000   299.17667     -4.5098091      0              58.099544      2098.9834    
     13000   293.75824     -5.0951496      0              56.380277      2025.5021    
     14000   293.21328     -4.730427       0              56.630953      2100.0296    
     15000   308.05075     -6.6476956      0              57.818755      2045.2998    
     16000   303.83436     -3.1475163      0              60.43656       2135.3687    
     17000   300.15615     -5.8286127      0              56.985718      1995.7962    
     18000   301.74814     -3.1275546      0              60.019934      2082.171     
     19000   299.94759     -4.426385       0              58.3443        2046.7058    
     20000   302.33422     -4.4199231      0              58.850216      2066.2375    
     21000   299.27608     -4.2612158      0              58.368941      2000.6171    
     22000   302.60369     -4.1204515      0              59.20608       2122.6307    
     23000   303.34604     -6.0139537      0              57.467931      2093.9313    
     24000   299.28381     -3.7344008      0              58.897373      2133.9775    
     25000   296.17191     -4.8680548      0              57.112485      1978.5813    
     26000   305.13157     -3.9826083      0              59.872939      2175.7627    
     27000   300.08078     -5.0691265      0              57.729432      2106.4045    
     28000   296.3847      -4.5415249      0              57.483545      2089.035     
     29000   295.48351     -4.1927217      0              57.643755      2111.2278    
     30000   310.45602     -5.4538766      0              59.51593       2169.3993    
     31000   306.45568     -4.2358278      0              59.896818      2060.0273    
     32000   299.89701     -2.4722857      0              60.287814      2153.6613    
     33000   303.1907      -3.0183202      0              60.431057      2158.9579    
     34000   302.36017     -3.8055937      0              59.469977      2191.7889    
     35000   297.93452     -4.1592733      0              58.190133      2147.1005    
     36000   298.46895     -5.4572964      0              57.003951      2151.5262    
     37000   298.40736     -2.7251622      0              59.723196      2144.5295    
     38000   299.98095     -5.4498211      0              57.327844      2139.7493    
     39000   298.35261     -4.1034614      0              58.333438      2142.7157    
     40000   297.47038     -4.3584037      0              57.893869      2174.6998    
     41000   296.78304     -5.5224993      0              56.585932      2121.8733    
     42000   293.93692     -4.4909454      0              57.021872      2058.1681    
     43000   312.25084     -4.749839       0              60.595573      2103.9351    
     44000   303.58153     -4.5447814      0              58.986386      2144.4504    
     45000   297.61581     -4.125621       0              58.157086      2126.4954    
     46000   294.80403     -4.7209327      0              56.973347      2125.453     
     47000   291.20557     -2.4604582      0              58.480764      2227.1999    
     48000   308.39849     -4.5122366      0              60.026986      2111.25      
     49000   303.94413     -5.0244299      0              58.58262       2048.184     
     50000   299.61002     -5.6841766      0              57.015864      2020.5561    
     51000   289.8861      -4.7659835      0              55.89911       2010.9563    
     52000   303.89778     -6.1807176      0              57.416633      1980.5124    
     53000   295.28319     -4.4455851      0              57.348971      2102.3195    
     54000   294.27408     -3.4347725      0              58.148604      2159.0392    
     55000   312.07651     -4.2769682      0              61.031962      2116.2149    
     56000   299.45273     -4.8786245      0              57.7885        2068.9931    
     57000   299.77956     -5.2459186      0              57.489602      2066.5039    
     58000   300.99678     -3.5091286      0              59.481123      2185.9988    
     59000   300.06493     -4.3813446      0              58.413897      2165.196     
     60000   295.72839     -5.7263396      0              56.161383      2026.1391    
     61000   305.60936     -3.6820956      0              60.27344       2130.0956    
     62000   291.25307     -5.853054       0              55.09811       1989.4825    
     63000   301.00668     -3.8432674      0              59.149055      2038.5961    
     64000   290.75506     -3.2778922      0              57.569051      2190.7539    
     65000   299.43156     -6.2886823      0              56.374012      2121.9942    
     66000   301.21929     -5.8286032      0              57.208213      2093.8841    
     67000   306.7252      -5.6686223      0              58.520428      2028.8927    
     68000   301.38641     -3.0019939      0              60.069796      2072.3484    
     69000   292.76917     -4.5344342      0              56.734006      2185.0021    
     70000   304.33829     -4.7862325      0              58.903303      2054.0868    
     71000   297.10406     -4.9536448      0              57.221968      1996.7604    
     72000   289.96242     -2.6418008      0              58.039264      2216.1537    
     73000   303.48102     -4.1178921      0              59.392242      2171.6895    
     74000   297.08896     -5.3784672      0              56.793986      2033.5259    
     75000   303.0129      -4.4802564      0              58.931912      2091.4109    
     76000   292.64903     -2.0770711      0              59.166228      2235.7836    
     77000   305.13846     -4.6630055      0              59.193984      2142.3422    
     78000   296.82342     -4.547084       0              57.569799      2044.2224    
     79000   297.96772     -4.2086531      0              58.1477        2044.3387    
     80000   312.54854     -5.6412577      0              59.766455      2129.2287    
     81000   294.71174     -5.7336656      0              55.941302      2116.0063    
     82000   292.53009     -4.9495934      0              56.268815      2074.0638    
     83000   296.63967     -5.471374       0              56.607055      2119.9102    
     84000   304.14718     -5.6697327      0              57.97981       2106.3719    
     85000   300.21831     -5.0067127      0              57.820626      1965.1037    
     86000   299.87111     -4.7223621      0              58.032316      2003.6162    
     87000   302.85971     -3.2331344      0              60.146976      2078.7267    
     88000   291.91128     -5.1222163      0              55.966691      2060.9264    
     89000   290.40439     -4.1175351      0              56.656023      2054.9373    
     90000   298.45774     -4.3471677      0              58.111733      2075.9297    
     91000   295.58312     -2.9019171      0              58.955406      2024.989     
     92000   296.54736     -5.0106486      0              57.048462      2132.9998    
     93000   299.27847     -5.1804994      0              57.450157      2074.8206    
     94000   299.15451     -4.5856298      0              58.019084      2124.713     
     95000   306.089       -3.7501644      0              60.305747      2071.5039    
     96000   294.83549     -3.9755437      0              57.725321      2041.9587    
     97000   297.58179     -5.2935818      0              56.982007      1965.7536    
     98000   305.34665     -4.1834673      0              59.71709       2067.5149    
     99000   293.80046     -3.4308048      0              58.053457      2168.7672    
    100000   294.47364     -3.3295951      0              58.295544      2208.2571    
    101000   302.42136     -3.8293007      0              59.459075      2088.7242    
    102000   307.84114     -4.6264875      0              59.796098      2108.4748    
    103000   298.81504     -4.0632747      0              58.470399      2188.0587    
    104000   296.05534     -4.924724       0              57.031422      2097.7507    
    105000   303.49144     -4.4125043      0              59.099809      1948.5705    
    106000   304.45798     -4.4315052      0              59.283079      2145.8733    
    107000   293.43518     -5.0505478      0              56.35727       2045.811     
    108000   314.13473     -4.1628796      0              61.576778      2068.8003    
    109000   300.2721      -2.4863643      0              60.35223       2129.6742    
    110000   302.88421     -4.8487886      0              58.536448      2020.7754    
    111000   305.13543     -4.2111614      0              59.645193      2107.8302    
    112000   295.71057     -7.0160871      0              54.867908      2062.7002    
    113000   297.9628      -5.6044102      0              56.750912      1979.2723    
    114000   294.27141     -3.5381687      0              58.044648      2112.3982    
    115000   307.11377     -3.6718543      0              60.598512      2106.8604    
    116000   290.26983     -4.9724629      0              55.772935      2063.1611    
    117000   294.47568     -3.8923298      0              57.733236      2145.5781    
    118000   287.08312     -3.4039979      0              56.674511      2053.5419    
    119000   295.16966     -3.5240817      0              58.246714      2157.5653    
    120000   293.61825     -2.99829        0              58.447839      2104.2416    
    121000   301.92497     -4.1018928      0              59.082603      2086.0427    
    122000   309.77358     -3.6678471      0              61.159144      2165.6311    
    123000   291.31241     -2.9700431      0              57.993539      2147.6655    
    124000   302.5579      -3.9700827      0              59.346867      2180.6864    
    125000   301.67802     -3.1588483      0              59.973967      2168.5939    
    126000   296.51826     -4.6712021      0              57.381819      2072.8001    
    127000   305.03945     -4.2019091      0              59.634359      2096.7187    
    128000   300.09511     -4.799316       0              58.00224       2085.0675    
    129000   297.60334     -4.1408596      0              58.139239      2060.4947    
    130000   301.30378     -5.2867155      0              57.767782      2140.0956    
    131000   301.9719      -4.6818236      0              58.512492      2000.6662    
    132000   291.94845     -5.8872354      0              55.209452      1960.7536    
    133000   294.49001     -4.4217562      0              57.206808      2125.6013    
    134000   296.48977     -3.8091947      0              58.237863      2055.1843    
    135000   294.06287     -6.3172589      0              55.221917      2076.7078    
    136000   295.71011     -5.3144635      0              56.569435      2046.8001    
    137000   294.25669     -5.0390246      0              56.540712      2159.8866    
    138000   289.6062      -3.9208375      0              56.685682      2120.5377    
    139000   306.67658     -2.9648675      0              61.214007      2167.9943    
    140000   310.92814     -3.4527431      0              61.615865      2157.036     
    141000   294.88218     -3.4966747      0              58.21396       2110.9855    
    142000   290.07752     -2.6416061      0              58.063548      2194.3724    
    143000   297.45191     -5.6183812      0              56.630026      1968.2217    
    144000   297.45686     -5.0269303      0              57.222514      2049.5475    
    145000   295.64915     -5.2676696      0              56.603471      2121.9415    
    146000   301.18693     -5.0795686      0              57.950475      2059.8697    
    147000   302.79027     -5.0206588      0              58.34492       2028.8051    
    148000   299.61403     -4.7312399      0              57.969639      2015.7714    
    149000   294.50711     -5.8141335      0              55.81801       2003.6613    
    150000   297.62765     -3.4697222      0              58.815464      2064.8503    
    151000   283.8733      -4.7761415      0              54.630642      2024.3757    
    152000   297.20888     -5.4456298      0              56.75192       2072.1164    
    153000   289.5723      -4.6799292      0              55.919495      2179.7168    
    154000   291.21761     -2.9683081      0              57.975434      1993.8768    
    155000   294.82007     -4.1052336      0              57.592403      2069.6508    
    156000   306.47804     -5.5259718      0              58.611354      1962.7066    
    157000   300.21958     -4.9583335      0              57.86927       2034.6453    
    158000   293.02961     -4.9105236      0              56.412421      2044.7071    
    159000   294.66946     -5.5386443      0              56.127474      2045.3025    
    160000   294.37579     -4.651243       0              56.953418      2107.7196    
    161000   296.394       -3.7694252      0              58.257592      2195.7786    
    162000   306.73697     -4.357643       0              59.833869      2003.0695    
    163000   305.36142     -4.5074316      0              59.396216      2106.761     
    164000   288.35059     -5.1540072      0              55.189748      2050.9141    
    165000   301.49356     -5.6061981      0              57.488015      2030.4143    
    166000   305.86482     -5.706086       0              58.302909      2008.3748    
    167000   299.43157     -4.2633237      0              58.399373      2086.8247    
    168000   300.91485     -5.0942742      0              57.878831      2035.077     
    169000   297.68626     -6.0200672      0              56.277384      2139.5472    
    170000   306.70831     -4.5666752      0              59.61884       2073.7756    
    171000   297.08989     -5.1977974      0              56.974851      2063.8996    
    172000   299.28073     -5.4774139      0              57.153715      2053.3486    
    173000   298.49407     -4.9379586      0              57.528544      2079.5952    
    174000   304.113       -3.4662012      0              60.176188      2035.4741    
    175000   309.70012     -5.0584425      0              59.753175      2154.8496    
    176000   304.06768     -4.156025       0              59.476879      2081.5463    
    177000   290.87536     -3.7917413      0              57.080377      2032.9469    
    178000   313.10446     -4.3644401      0              61.159612      2051.2881    
    179000   296.919       -5.0156989      0              57.121186      2044.0269    
    180000   304.8421      -4.817776       0              58.977193      2063.862     
    181000   301.05765     -4.2513289      0              58.75166       2073.9364    
    182000   296.7593      -4.4345177      0              57.668947      2144.9076    
    183000   298.69825     -2.6685315      0              59.8407        2191.7827    
    184000   294.24983     -3.9181484      0              57.660153      2176.5442    
    185000   312.507       -5.4261475      0              59.972872      2069.5856    
    186000   301.00666     -4.2089531      0              58.783366      2037.3005    
    187000   306.02019     -4.8128369      0              59.228673      2167.6876    
    188000   299.5345      -4.3996017      0              58.284635      2148.898     
    189000   293.63997     -5.3179956      0              56.132679      2109.1554    
    190000   290.81834     -5.1351921      0              55.724993      2107.5605    
    191000   291.09907     -4.7283916      0              56.190545      2082.5203    
    192000   293.64445     -4.3295394      0              57.122074      2060.2406    
    193000   304.15257     -5.8648841      0              57.785786      2142.0893    
    194000   300.45698     -5.7807499      0              57.096536      2051.8547    
    195000   301.77144     -5.8076693      0              57.344697      2029.909     
    196000   303.81602     -6.2145374      0              57.365702      2009.8245    
    197000   286.34143     -4.4705677      0              55.452727      1954.3635    
    198000   307.58702     -4.101153       0              60.268252      2138.0699    
    199000   301.97287     -3.1678521      0              60.026667      2220.2549    
    200000   294.82683     -5.33748        0              56.361572      2060.6416    
    201000   297.04129     -4.6959596      0              57.466518      2172.3853    
    202000   295.02311     -5.6062754      0              56.133853      2012.7132    
    203000   303.31009     -3.2058399      0              60.268523      2182.7738    
    204000   299.57382     -4.0331399      0              58.659325      2128.0957    
    205000   295.09427     -1.8554737      0              59.899546      2213.8187    
    206000   296.47067     -5.1222046      0              56.920857      2056.5032    
    207000   286.62643     -4.146514       0              55.836422      2031.8748    
    208000   302.29947     -3.5323391      0              59.730528      2145.6937    
    209000   303.28061     -3.6408508      0              59.827343      2121.85      
    210000   305.72238     -4.2799645      0              59.699223      2140.2858    
    211000   287.81679     -5.8187275      0              54.413318      2075.1534    
    212000   305.05873     -3.3672765      0              60.473028      2082.5797    
    213000   306.50576     -5.3722601      0              58.770866      2076.5114    
    214000   296.50352     -4.4971463      0              57.55279       2162.8862    
    215000   301.83259     -5.180069       0              57.985093      2019.1653    
    216000   295.67103     -5.4860994      0              56.38962       2084.8771    
    217000   287.65417     -4.5889329      0              55.609081      2100.8535    
    218000   292.42499     -4.1684691      0              57.027945      2211.5388    
    219000   300.17243     -4.473882       0              58.343855      2099.0246    
    220000   301.95871     -3.388191       0              59.803366      2156.9029    
    221000   300.94529     -3.215883       0              59.763593      2116.204     
    222000   306.2416      -3.9524294      0              60.135417      2202.4529    
    223000   299.2457      -4.4817456      0              58.142052      1989.3196    
    224000   291.05076     -3.6037972      0              57.305029      2049.2884    
    225000   304.64294     -4.5158353      0              59.237456      2131.3792    
    226000   309.16947     -5.4177884      0              59.282779      2085.1468    
    227000   292.34533     -5.3357645      0              55.843979      2066.9916    
    228000   313.35826     -3.8174194      0              61.759745      2051.2527    
    229000   297.00546     -3.5544481      0              58.600531      2144.9693    
    230000   299.30152     -5.0115641      0              57.623916      2115.4583    
    231000   311.52338     -4.1607627      0              61.032412      2145.2037    
    232000   310.24449     -5.0178848      0              59.907654      2182.1376    
    233000   301.40032     -3.5752043      0              59.499495      2126.1832    
    234000   286.26731     -4.6751425      0              55.23264       2075.5914    
    235000   304.94308     -6.3530976      0              57.463004      2041.6175    
    236000   308.57692     -4.4856234      0              60.09094       2154.1081    
    237000   299.71044     -4.6388895      0              58.082166      2078.1656    
    238000   299.33701     -4.3124336      0              58.330474      2078.8847    
    239000   290.46089     -4.176061       0              56.609321      2060.2184    
    240000   294.6279      -5.7470738      0              55.910348      2093.94      
    241000   296.16855     -4.8829289      0              57.096907      2089.6835    
    242000   296.21231     -4.8305145      0              57.15848       2135.1666    
    243000   307.95073     -4.5939245      0              59.851595      2099.5072    
    244000   305.73712     -4.7308479      0              59.251423      2147.3557    
    245000   300.93257     -4.2909767      0              58.685836      2176.8814    
    246000   297.10323     -5.4031018      0              56.772337      2018.2796    
    247000   300.21361     -4.4157676      0              58.410587      2109.4711    
    248000   306.57453     -4.5405231      0              59.616995      2116.0173    
    249000   303.87439     -3.8420763      0              59.750378      2014.9321    
    250000   307.83282     -4.9583809      0              59.462462      2031.8009    
    251000   293.05078     -4.730824       0              56.596551      2090.4186    
    252000   300.96488     -5.3853544      0              57.59822       2027.8907    
    253000   303.95551     -4.370704       0              59.238727      2139.4853    
    254000   301.33205     -5.0568152      0              58.003599      2020.8462    
    255000   291.34706     -4.4150029      0              56.55583       2172.8202    
    256000   282.49628     -4.6199145      0              54.498696      2043.672     
    257000   304.4288      -5.3595731      0              58.348905      2020.9402    
    258000   299.25767     -3.5444281      0              59.081876      2183.0726    
    259000   303.40047     -4.9290606      0              58.564216      2081.807     
    260000   310.6679      -4.0713966      0              60.94275       2108.309     
    261000   294.92969     -4.7040191      0              57.016559      2123.3521    
    262000   299.51127     -6.3193675      0              56.360007      2050.4651    
    263000   301.30763     -3.6954449      0              59.359858      2039.3098    
    264000   296.63602     -4.3577718      0              57.719892      2149.1859    
    265000   311.0139      -3.4793526      0              61.607202      2161.4391    
    266000   294.77302     -2.6927333      0              58.995058      2178.4871    
    267000   310.92374     -4.2571447      0              60.810543      2116.3686    
    268000   299.16712     -4.2281059      0              58.379247      2149.8983    
    269000   303.01341     -4.9787492      0              58.433526      2142.7842    
    270000   297.92018     -5.2156397      0              57.130764      2098.8443    
    271000   300.669       -4.6576573      0              58.263998      1975.628     
    272000   300.41066     -4.4830307      0              58.384561      2047.4949    
    273000   308.96997     -5.7464064      0              58.912412      2126.7714    
    274000   293.16318     -4.4267914      0              56.924105      2068.2967    
    275000   297.25964     -3.4561092      0              58.752062      2143.5676    
    276000   295.41332     -4.6296777      0              57.19211       2145.9252    
    277000   292.96802     -5.5593624      0              55.750691      2001.9373    
    278000   313.69616     -4.6474675      0              61.000411      2058.164     
    279000   306.15217     -3.9882092      0              60.080921      2157.8287    
    280000   303.73666     -4.7706472      0              58.792983      2168.3405    
    281000   299.71604     -3.6329315      0              59.089295      2184.7671    
    282000   303.45703     -4.1728705      0              59.332243      2013.0985    
    283000   305.23162     -5.4083689      0              58.468116      2041.8286    
    284000   301.77774     -3.2468869      0              59.906798      2176.2883    
    285000   282.24641     -2.7705638      0              56.295757      2136.0274    
    286000   302.02539     -2.3842503      0              60.821259      2167.0045    
    287000   316.26209     -5.5772865      0              60.607568      2007.9406    
    288000   305.45062     -4.348432       0              59.573883      2168.2779    
    289000   301.44233     -4.1598978      0              58.923594      2127.6371    
    290000   294.00185     -4.3173181      0              57.209087      2055.5983    
    291000   294.31        -5.4379052      0              56.152988      2073.3398    
    292000   305.20615     -6.0331669      0              57.837988      2007.6619    
    293000   300.97572     -4.9865465      0              57.999297      1976.6285    
    294000   305.40122     -5.8915636      0              58.020414      2055.376     
    295000   303.35916     -3.7195552      0              59.765077      2026.5047    
    296000   301.01994     -4.2091248      0              58.785974      2060.871     
    297000   298.67631     -5.0511133      0              57.453528      2130.1232    
    298000   297.81082     -4.3992614      0              57.924257      2121.355     
    299000   292.85967     -5.8361684      0              55.451213      1991.1022    
    300000   296.20355     -3.2510175      0              58.736144      2087.9236    
    301000   306.76244     -3.8071796      0              60.389664      2092.9467    
    302000   301.29456     -6.5044097      0              56.548159      2005.0008    
    303000   304.43836     -4.3451084      0              59.365369      2153.1845    
    304000   291.65913     -5.2859949      0              55.750146      2042.1344    
    305000   294.59562     -3.7073894      0              57.943278      2199.8615    
    306000   291.07927     -3.148429       0              57.766362      2055.9602    
    307000   296.15047     -4.0998319      0              57.87622       2126.5647    
    308000   304.32324     -5.1675859      0              58.5188        2149.4866    
    309000   288.70027     -4.6594601      0              55.757473      2120.6473    
    310000   302.8789      -6.3142543      0              57.069872      1954.2308    
    311000   298.13296     -4.7750334      0              57.615899      1989.7774    
    312000   286.68388     -6.4329054      0              53.562053      1924.6245    
    313000   297.17297     -6.0910632      0              56.098971      2083.7283    
    314000   296.06583     -4.9758389      0              56.9825        2081.5738    
    315000   302.67063     -4.5226162      0              58.817926      2173.7401    
    316000   298.87846     -3.1425449      0              59.4044        2059.4292    
    317000   293.98762     -6.0620866      0              55.461342      2066.4502    
    318000   292.41781     -3.3381585      0              57.856753      2060.4546    
    319000   305.71245     -5.1928996      0              58.78421       2099.6418    
    320000   299.08879     -3.4626646      0              59.128297      2154.7354    
    321000   302.35286     -5.1801722      0              58.093869      2122.0972    
    322000   292.8445      -5.3685672      0              55.915638      1965.3847    
    323000   297.89274     -4.5335112      0              57.807151      2125.8104    
    324000   293.89542     -5.3927981      0              56.111335      2079.6628    
    325000   303.38003     -4.6738222      0              58.815176      2057.3969    
    326000   298.45567     -4.6050722      0              57.853394      2171.5365    
    327000   300.76887     -3.8829123      0              59.059643      2042.0452    
    328000   291.86344     -4.9886402      0              56.090256      2040.33      
    329000   294.93144     -6.6204209      0              55.100522      2037.56      
    330000   307.29139     -5.4768602      0              58.830678      2069.3637    
    331000   293.95114     -4.600228       0              56.915565      2078.6404    
    332000   284.98184     -4.266296       0              55.372473      2080.2923    
    333000   300.12047     -4.137169       0              58.669695      2134.7441    
    334000   297.42935     -3.5673506      0              58.676336      2111.9562    
    335000   302.95741     -4.0188248      0              59.381732      2159.4101    
    336000   298.18503     -4.6903622      0              57.711468      2156.4313    
    337000   294.376       -4.5818826      0              57.022823      2001.1882    
    338000   304.47043     -3.2334231      0              60.483767      2126.919     
    339000   310.23218     -4.4582916      0              60.464672      2137.9056    
    340000   304.05675     -2.4356137      0              61.195004      2114.7017    
    341000   296.99976     -5.9158792      0              56.237907      1986.5637    
    342000   298.4602      -4.9025832      0              57.556831      2071.5138    
    343000   304.17995     -4.4592282      0              59.197172      2128.1266    
    344000   296.59813     -4.442379       0              57.627357      2046.2089    
    345000   291.27359     -3.9747946      0              56.980663      2185.9867    
    346000   308.48389     -5.5875425      0              58.969551      2059.5059    
    347000   306.85035     -4.624863       0              59.590377      2190.9574    
    348000   290.86149     -4.9119444      0              55.957273      2095.1173    
    349000   291.37696     -5.2805946      0              55.696496      2099.5066    
    350000   308.27981     -2.5705038      0              61.943883      2174.0668    
    351000   294.68334     -5.6949905      0              55.974033      2040.3543    
    352000   301.94815     -3.9095594      0              59.279787      2039.7219    
    353000   299.09582     -2.8896646      0              59.702768      2159.2501    
    354000   308.18652     -4.3156321      0              60.179231      2008.9107    
    355000   292.11598     -4.8617962      0              56.269951      2097.4319    
    356000   298.26235     -2.923187       0              59.494825      2125.693     
    357000   288.24989     -5.5887154      0              54.733966      2068.3713    
    358000   293.47781     -6.5461894      0              54.870551      1889.5137    
    359000   292.65898     -2.8637291      0              58.381653      2102.3139    
    360000   304.70103     -2.3480183      0              61.417428      2165.1925    
    361000   296.39041     -4.2520576      0              57.774209      2043.562     
    362000   298.52879     -4.3425018      0              58.131267      2139.4036    
    363000   291.73926     -5.376899       0              55.67601       2030.3178    
    364000   293.916       -5.4009442      0              56.107496      2075.0622    
    365000   293.73778     -5.5709529      0              55.900191      1989.3762    
    366000   307.05382     -4.8683782      0              59.389442      2191.7603    
    367000   293.44063     -5.2582665      0              56.150692      2024.0405    
    368000   296.18713     -5.5877287      0              56.395996      2081.5635    
    369000   304.45419     -6.2686763      0              57.445113      2047.0937    
    370000   306.334       -5.1113215      0              58.995861      2101.2826    
    371000   293.73198     -4.1434888      0              57.326441      2241.5863    
    372000   301.27758     -5.0187897      0              58.030225      2044.3595    
    373000   297.02448     -5.1230971      0              57.035862      2164.5302    
    374000   303.35221     -4.9842438      0              58.498934      2152.1012    
    375000   305.6476      -4.5760109      0              59.387527      2097.4984    
    376000   301.88774     -4.652239       0              58.524464      2086.1048    
    377000   299.29073     -5.5353748      0              57.097847      2079.4352    
    378000   297.75326     -4.2465469      0              58.064924      2144.8591    
    379000   299.14584     -6.0273391      0              56.575561      2024.4635    
    380000   285.5628      -4.8201744      0              54.940173      1937.196     
    381000   303.28973     -5.445021       0              58.02508       2052.8278    
    382000   302.72389     -4.5425317      0              58.809155      2045.5827    
    383000   291.82727     -5.2348699      0              55.836458      2144.8214    
    384000   299.2655      -4.4881904      0              58.139751      2196.4752    
    385000   301.87428     -4.5860712      0              58.587815      2046.0557    
    386000   294.0878      -5.9504872      0              55.593906      2081.2041    
    387000   304.1694      -5.9764013      0              57.67779       2008.0821    
    388000   310.73066     -4.9093849      0              60.117896      2131.0885    
    389000   305.22053     -4.6021658      0              59.271998      2120.1767    
    390000   302.78593     -3.9337754      0              59.430894      2075.1019    
    391000   302.65555     -4.8510028      0              58.486383      2069.9347    
    392000   306.7081      -5.1617452      0              59.023726      2088.9573    
    393000   298.68745     -4.3428866      0              58.164085      2114.6341    
    394000   318.41615     -5.1951197      0              61.44052       2060.0478    
    395000   308.49559     -5.709975       0              58.849568      2117.8804    
    396000   299.64127     -5.8477573      0              56.858823      1926.6459    
    397000   290.46562     -4.9771358      0              55.809237      2033.5921    
    398000   298.93522     -6.5811069      0              55.977718      2032.2726    
    399000   300.41897     -5.3294363      0              57.539895      2051.097     
    400000   303.98815     -4.2973267      0              59.318935      2071.8691    
    401000   297.44372     -3.811711       0              58.434984      2114.8585    
    402000   304.58267     -5.8243817      0              57.916296      2111.0963    
    403000   305.28193     -4.4181844      0              59.468829      2137.7128    
    404000   289.60133     -3.9773557      0              56.628144      2061.2758    
    405000   307.86843     -4.5236308      0              59.904664      2131.7357    
    406000   313.93538     -5.47681        0              60.221129      2032.6378    
    407000   296.06213     -3.4883222      0              58.469244      2192.0938    
    408000   305.91376     -6.3964734      0              57.622764      2032.9295    
    409000   309.7298      -6.2786535      0              58.539175      2034.3612    
    410000   280.72637     -3.5753411      0              55.172876      2100.6873    
    411000   295.37204     -4.1943561      0              57.618794      2036.644     
    412000   306.27253     -5.0822601      0              59.012058      2067.7643    
    413000   297.16685     -6.2569769      0              55.931775      2018.8508    
    414000   296.41569     -5.4563729      0              56.575184      2076.5538    
    415000   290.24409     -3.9613335      0              56.778678      2048.7188    
    416000   299.12989     -4.4940719      0              58.10549       2198.2971    
    417000   300.00282     -5.5928676      0              57.189376      2073.8167    
    418000   299.58451     -4.8802759      0              57.814427      2117.2131    
    419000   306.00969     -4.7368042      0              59.302508      1978.3265    
    420000   297.60649     -3.7756768      0              58.50508       2112.6808    
    421000   305.39739     -3.7483824      0              60.162794      2118.5015    
    422000   290.99997     -4.5034544      0              56.394743      2161.6951    
    423000   297.42267     -3.7721879      0              58.4701        2092.7589    
    424000   304.71245     -2.9187772      0              60.849059      2078.4972    
    425000   288.6138      -6.0490826      0              54.349754      1980.8253    
    426000   295.46732     -4.9704709      0              56.862619      2040.3282    
    427000   300.88421     -3.8827665      0              59.083927      2169.486     
    428000   304.71591     -3.6832384      0              60.085324      2147.3631    
    429000   294.01546     -2.5508062      0              58.978449      2205.2421    
    430000   287.17389     -5.9525149      0              54.144989      2045.7548    
    431000   287.67223     -2.8712559      0              57.330538      2107.4391    
    432000   302.5577      -4.1239627      0              59.192946      2106.8622    
    433000   308.53866     -4.4427784      0              60.125777      2114.8229    
    434000   294.30767     -2.3917016      0              59.198704      2140.5057    
    435000   297.13484     -3.2460674      0              58.935987      2109.9963    
    436000   304.61467     -5.024466       0              58.722907      2184.7035    
    437000   306.11902     -4.4859824      0              59.57621       2188.3961    
    438000   300.71898     -5.3373209      0              57.594793      2075.9655    
    439000   307.54383     -4.9317363      0              59.428629      2116.1859    
    440000   296.96129     -5.0958193      0              57.049917      1999.1919    
    441000   293.0488      -4.6305404      0              56.696419      2082.4852    
    442000   289.37695     -4.8442085      0              55.714336      2092.0038    
    443000   299.3167      -5.923535       0              56.715122      1981.7961    
    444000   296.21332     -4.2775477      0              57.711658      2115.4826    
    445000   301.45925     -6.4059809      0              56.681052      2153.3952    
    446000   294.20776     -6.426065       0              55.143433      2053.1536    
    447000   297.79848     -3.6989884      0              58.621946      1992.0611    
    448000   297.87165     -5.9609691      0              56.375278      2073.8816    
    449000   298.59648     -3.6081795      0              58.879756      2074.989     
    450000   295.23376     -3.2413752      0              58.542837      2099.314     
    451000   305.41379     -5.008959       0              58.905648      2118.2698    
    452000   304.20043     -3.5653211      0              60.095364      2000.4198    
    453000   305.47787     -3.9192161      0              60.008803      2219.9433    
    454000   297.79635     -4.5311682      0              57.789321      2158.0309    
    455000   309.82707     -3.0243011      0              61.813883      2061.0676    
    456000   290.42852     -4.3765064      0              56.402102      2023.5124    
    457000   314.50231     -5.4944318      0              60.322151      2091.5844    
    458000   296.60043     -4.4307285      0              57.639488      2080.2736    
    459000   295.42425     -4.581786       0              57.24229       2064.1228    
    460000   289.54561     -2.6772949      0              57.916544      2171.2595    
    461000   303.73209     -4.5078248      0              59.054849      2123.431     
    462000   301.90179     -5.0595231      0              58.120121      2070.1766    
    463000   297.31514     -4.9055925      0              57.314193      1992.7594    
    464000   299.24406     -3.8630227      0              58.760432      2141.3742    
    465000   298.97839     -4.8885071      0              57.679351      2106.6842    
    466000   304.89846     -4.9334635      0              58.873301      2161.9962    
    467000   301.01989     -5.0215222      0              57.973564      2097.3179    
    468000   307.12485     -3.6501722      0              60.622512      2188.2946    
    469000   304.74839     -3.793042       0              59.982317      2051.9095    
    470000   299.14669     -4.1534857      0              58.449592      2067.0411    
    471000   308.68837     -4.6470901      0              59.952796      2039.6757    
    472000   305.09133     -4.109777       0              59.737349      2214.6727    
    473000   288.19744     -2.8182025      0              57.493502      2089.3837    
    474000   306.50837     -3.0241191      0              61.119555      2208.5217    
    475000   297.88979     -4.2415813      0              58.098464      2020.1489    
    476000   291.85228     -4.7508527      0              56.325708      2093.442     
    477000   294.626       -5.2949168      0              56.362108      2122.9408    
    478000   308.48469     -5.0995877      0              59.457673      2093.4939    
    479000   307.73692     -3.1536063      0              61.247169      2181.7052    
    480000   305.97874     -5.6989626      0              58.333874      2064.2024    
    481000   307.32892     -6.5958208      0              57.71957       2028.1578    
    482000   299.85578     -4.0765553      0              58.674916      2057.9616    
    483000   301.62024     -5.1712859      0              57.949438      2061.2473    
    484000   301.05831     -5.3695411      0              57.633587      2099.562     
    485000   299.29482     -3.6186021      0              59.015477      2073.1763    
    486000   308.02934     -5.3901269      0              59.071843      2047.1736    
    487000   294.88367     -5.3108581      0              56.40009       2061.7393    
    488000   301.38493     -5.1456538      0              57.925825      2153.7164    
    489000   289.67093     -3.8645799      0              56.755485      1946.8822    
    490000   293.16407     -3.4053902      0              57.945692      2156.1569    
    491000   292.66297     -3.1631055      0              58.08311       2160.4397    
    492000   304.54889     -3.5014635      0              60.232145      2105.9142    
    493000   294.93728     -4.6717507      0              57.050415      2039.3635    
    494000   301.17161     -5.4350925      0              57.591744      2081.72      
    495000   306.1362      -3.4052109      0              60.660578      2084.9441    
    496000   296.37128     -4.2680228      0              57.75424       2049.365     
    497000   297.7201      -3.435357       0              58.869176      2026.7397    
    498000   302.10326     -5.2601185      0              57.961688      2031.5731    
    499000   293.39337     -5.5064581      0              55.892611      2016.614     
    500000   293.15096     -4.9649263      0              56.383412      2111.3863    
    501000   299.52792     -3.9230866      0              58.759772      2076.6955    
    502000   292.9914      -5.6408423      0              55.674106      2075.4306    
    503000   302.92826     -4.5509834      0              58.843472      2073.8108    
    504000   309.65547     -3.83364        0              60.968634      2076.6422    
    505000   292.18105     -4.8265403      0              56.318824      1960.0546    
    506000   305.21559     -2.6581397      0              61.214991      2224.931     
    507000   297.75622     -3.6058846      0              58.706207      2163.7777    
    508000   301.77252     -3.5171819      0              59.635409      2116.2829    
    509000   306.1582      -5.0879979      0              58.982395      2048.7163    
    510000   306.20893     -3.534335       0              60.546674      2077.0392    
    511000   294.44702     -4.6664327      0              56.953136      2166.7018    
    512000   299.79396     -5.4081929      0              57.330341      2146.9779    
    513000   290.7622      -4.398369       0              56.450068      2103.9537    
    514000   305.1892      -4.6482743      0              59.219333      2089.4864    
    515000   292.18239     -3.8541294      0              57.291515      2104.8269    
    516000   296.70939     -4.6087474      0              57.484271      2129.8389    
    517000   310.61342     -2.5847026      0              62.418043      2243.5259    
    518000   298.44801     -5.2578723      0              57.198991      1984.267     
    519000   296.03071     -4.4969662      0              57.454024      2053.9275    
    520000   297.95886     -4.4018381      0              57.95266       2109.3208    
    521000   297.63876     -2.8018372      0              59.485673      2230.3297    
    522000   293.04724     -4.0856767      0              57.240956      2114.0558    
    523000   298.71678     -3.7951809      0              58.717929      2156.0276    
    524000   303.72311     -4.8233579      0              58.737438      2155.9229    
    525000   294.44836     -5.3415545      0              56.278294      2098.6606    
    526000   297.14065     -5.6152892      0              56.56798       2072.3715    
    527000   296.11516     -6.0997064      0              55.868958      2105.187     
    528000   297.43266     -5.1685902      0              57.07579       2154.7496    
    529000   314.33647     -4.1378118      0              61.644065      2174.2773    
    530000   295.94366     -4.1970667      0              57.735706      2161.8283    
    531000   303.76756     -5.7107224      0              57.859376      2016.3882    
    532000   301.59678     -3.5924167      0              59.523398      2091.9756    
    533000   299.02699     -3.8909139      0              58.687114      2169.3074    
    534000   303.30151     -3.0181795      0              60.454388      2129.0157    
    535000   299.31303     -3.5429468      0              59.094943      2223.8464    
    536000   305.17949     -4.1975763      0              59.668         2236.9645    
    537000   298.82954     -3.1060267      0              59.43068       2201.5627    
    538000   311.29455     -4.6286982      0              60.51659       2091.1673    
    539000   292.92785     -3.4666527      0              57.834994      2107.4122    
    540000   297.67334     -4.9666105      0              57.328136      2060.155     
    541000   305.26647     -2.8010072      0              61.082772      2189.2777    
    542000   302.13349     -3.8763849      0              59.351747      2100.3075    
    543000   292.70563     -5.2234727      0              56.03167       2035.3519    
    544000   292.7248      -4.5285141      0              56.730641      2115.9782    
    545000   298.44781     -3.925342       0              58.531479      2091.2926    
    546000   300.14113     -4.3083887      0              58.502798      2109.4789    
    547000   300.3145      -4.2488267      0              58.598642      2115.1713    
    548000   292.19449     -3.600143       0              57.548033      2051.434     
    549000   295.02646     -4.7413317      0              56.999498      2085.4994    
    550000   300.29651     -4.1289436      0              58.71476       2087.4597    
    551000   298.90231     -3.4348639      0              59.117072      2128.733     
    552000   303.53427     -2.5800477      0              60.94123       2182.5101    
    553000   294.05762     -6.6039273      0              54.93415       1916.1588    
    554000   290.88124     -5.7269436      0              55.146406      1994.8804    
    555000   295.52053     -3.7288991      0              58.115325      2185.6897    
    556000   309.00266     -4.7819682      0              59.883691      2056.2269    
    557000   289.9581      -4.7902424      0              55.889919      2142.3396    
    558000   312.03846     -4.6532698      0              60.647697      2095.3782    
    559000   298.00331     -3.076098       0              59.287703      2198.1283    
    560000   301.05375     -3.5710189      0              59.431153      2064.0328    
    561000   293.99427     -3.5887801      0              57.93604       2170.1865    
    562000   296.04121     -4.2898049      0              57.663382      2070.3685    
    563000   298.55142     -4.1419396      0              58.336566      2084.4151    
    564000   307.08371     -4.3991045      0              59.864972      2047.4001    
    565000   286.93879     -5.5979649      0              54.450339      2120.3141    
    566000   305.4673      -3.9824696      0              59.943336      2126.916     
    567000   302.23826     -3.7623835      0              59.487675      2136.4436    
    568000   295.39932     -4.1785485      0              57.640309      2076.7941    
    569000   302.74505     -4.8071976      0              58.548918      2020.8899    
    570000   309.09046     -4.2686572      0              60.415376      2016.6772    
    571000   302.0069      -5.5307695      0              57.670871      2093.1512    
    572000   311.42402     -4.4212326      0              60.751148      2196.8       
    573000   304.1481      -4.4808566      0              59.168878      2050.98      
    574000   316.0791      -5.3767994      0              60.769761      2074.2897    
    575000   298.61298     -4.7718465      0              57.719541      2058.8795    
    576000   304.83311     -3.8923024      0              59.900785      2061.6812    
    577000   297.66822     -6.3376036      0              55.956073      2053.8671    
    578000   296.50197     -4.1080125      0              57.941599      2105.4555    
    579000   299.36166     -5.6080509      0              57.040014      2013.4519    
    580000   311.0608      -5.6696741      0              59.426696      2084.4105    
    581000   300.47303     -4.8907264      0              57.989919      2001.6832    
    582000   295.20279     -4.5745685      0              57.203162      2142.4161    
    583000   299.92497     -3.957677       0              58.808274      2127.1768    
    584000   301.66826     -4.8159597      0              58.314813      2120.6804    
    585000   294.27796     -4.9541085      0              56.630081      2090.4471    
    586000   303.44227     -4.7607171      0              58.741307      2077.2125    
    587000   295.68695     -3.2644644      0              58.614587      2238.8143    
    588000   298.57481     -4.0396696      0              58.443731      2139.8482    
    589000   299.16261     -3.2687612      0              59.337648      2066.5317    
    590000   308.0396      -4.2203562      0              60.243761      2071.0104    
    591000   295.71019     -6.0489677      0              55.834947      2039.2047    
    592000   298.58881     -5.6780902      0              56.80824       2002.8724    
    593000   295.0099      -3.4248992      0              58.312463      2081.1028    
    594000   295.04656     -5.1258149      0              56.619219      2063.4374    
    595000   298.67335     -5.4853329      0              57.018688      1977.3832    
    596000   298.81122     -4.8021223      0              57.730751      2054.9129    
    597000   305.31785     -4.0355497      0              59.85898       2159.1056    
    598000   303.86345     -5.7520312      0              57.838133      2058.8858    
    599000   304.54926     -4.2389272      0              59.494759      2105.4607    
    600000   307.77762     -4.4699575      0              59.939335      2092.6428    
    601000   304.31433     -4.6391062      0              59.045415      2104.6351    
    602000   297.76965     -5.8017514      0              56.513151      2139.3203    
    603000   301.19366     -4.7390281      0              58.292423      2119.4629    
    604000   307.78206     -3.0268395      0              61.383381      2090.1187    
    605000   307.37652     -2.4867301      0              61.838622      2133.6115    
    606000   309.32282     -4.8041461      0              59.928514      2120.4092    
    607000   301.07569     -4.8658265      0              58.140937      2087.0749    
    608000   307.67534     -6.1479348      0              58.239953      1991.0523    
    609000   292.9095      -4.4689262      0              56.828882      2090.7326    
    610000   290.03601     -5.4398915      0              55.256576      2137.7108    
    611000   301.71117     -4.7427         0              58.397053      2118.2688    
    612000   297.14816     -4.2527331      0              57.932108      2114.7631    
    613000   305.74685     -4.5846455      0              59.399662      2169.0127    
    614000   306.6196      -5.0857746      0              59.081176      2155.9913    
    615000   305.23531     -3.8412154      0              60.036041      2261.9275    
    616000   290.48314     -4.4421527      0              56.347885      2069.2192    
    617000   297.88911     -5.3628238      0              56.977077      2031.9597    
    618000   295.05165     -4.7910288      0              56.955072      2032.2843    
    619000   298.54438     -4.5112073      0              57.965825      2043.6755    
    620000   302.0605      -6.1969772      0              57.015881      2035.2279    
    621000   299.61736     -4.1552487      0              58.546328      2095.0392    
    622000   302.37135     -4.4838729      0              58.794038      2029.3543    
    623000   304.29964     -4.3819603      0              59.299487      2075.6786    
    624000   304.99095     -3.8204212      0              60.005698      2051.6568    
    625000   294.80925     -4.8633439      0              56.832028      2036.717     
    626000   306.13676     -2.794542       0              61.271364      2119.7869    
    627000   287.65076     -4.5999686      0              55.597332      2147.393     
    628000   297.56216     -4.5158344      0              57.755647      2074.9983    
    629000   300.49087     -2.7496965      0              60.134682      2164.914     
    630000   297.41654     -5.4058302      0              56.835176      2126.7122    
    631000   299.97736     -5.6339359      0              57.142978      2045.7961    
    632000   296.18765     -4.0942241      0              57.889609      2091.0425    
    633000   294.04094     -6.2008173      0              55.33377       1972.0637    
    634000   298.95888     -6.4162236      0              56.147552      2063.2601    
    635000   301.4823      -4.0021818      0              59.089674      1991.7419    
    636000   309.92495     -5.5430408      0              59.315627      2086.0133    
    637000   291.61974     -3.6946511      0              57.333245      2118.6445    
    638000   304.92487     -2.683627       0              61.128664      2128.7968    
    639000   301.67495     -3.0750133      0              60.057159      2268.5015    
    640000   297.5702      -4.358849       0              57.914315      2069.7114    
    641000   300.50385     -5.8780974      0              57.008996      2044.9769    
    642000   295.05037     -5.3827172      0              56.363116      2136.385     
    643000   293.20742     -4.1561623      0              57.203993      2176.5452    
    644000   306.7829      -5.2235959      0              58.977529      2106.2848    
    645000   293.01192     -3.1251492      0              58.194093      2046.1584    
    646000   296.11187     -5.7387946      0              56.229181      2079.15      
    647000   310.94884     -5.2241691      0              59.848771      2189.3611    
    648000   298.6895      -4.2907976      0              58.216603      2214.8168    
    649000   296.99859     -5.5790645      0              56.574476      2070.9722    
    650000   314.93913     -5.3057124      0              60.602284      2066.8064    
    651000   304.36638     -3.5648161      0              60.130598      2116.9153    
    652000   289.65727     -5.9107801      0              54.706426      2079.6462    
    653000   289.60607     -5.2974588      0              55.309033      2079.3266    
    654000   292.531       -5.1356377      0              56.08296       2047.7119    
    655000   316.33096     -4.0724446      0              62.126824      2040.1331    
    656000   304.08234     -5.3178915      0              58.318082      1992.2932    
    657000   301.25384     -3.7658989      0              59.278148      2135.477     
    658000   302.10637     -4.8024449      0              58.420013      2070.5739    
    659000   300.42178     -3.1535495      0              59.71637       2161.1508    
    660000   298.87453     -5.5154702      0              57.030652      1977.4314    
    661000   301.22622     -6.0635874      0              56.974679      2039.9829    
    662000   299.45248     -6.0669121      0              56.60016       2063.5849    
    663000   307.45558     -3.0184438      0              61.323455      2246.6563    
    664000   303.37719     -5.9482936      0              57.540111      2045.333     
    665000   289.93718     -3.6583727      0              57.017412      2067.1259    
    666000   298.33879     -5.3890222      0              57.044985      2132.1838    
    667000   313.03671     -5.6696882      0              59.840185      2012.9121    
    668000   294.80182     -4.5875943      0              57.106223      2050.2668    
    669000   291.45653     -4.3374483      0              56.656293      2070.9746    
    670000   306.25274     -5.4314498      0              58.658726      2097.9373    
    671000   298.3782      -5.0707228      0              57.371532      2124.4561    
    672000   301.2396      -7.2269118      0              55.814153      1944.2584    
    673000   292.79865     -5.6286563      0              55.645955      2094.7214    
    674000   293.83994     -5.636787       0              55.855737      2106.2231    
    675000   302.61067     -5.5393216      0              57.788671      2044.9984    
    676000   299.09105     -4.7995153      0              57.791919      2095.6659    
    677000   291.54542     -4.815242       0              56.197102      2079.8376    
    678000   300.85118     -3.8665244      0              59.093257      2154.8205    
    679000   297.83462     -5.4612151      0              56.867283      2057.8698    
    680000   287.71039     -4.0830381      0              56.12674       2064.9914    
    681000   290.84674     -4.0645691      0              56.801561      2075.2743    
    682000   300.14981     -4.3024432      0              58.510559      2093.8058    
    683000   301.22212     -5.1292923      0              57.908115      2203.1179    
    684000   302.46946     -3.8953284      0              59.403112      2141.4322    
    685000   304.38459     -4.447122       0              59.252103      2137.9768    
    686000   306.0787      -6.0542978      0              57.999457      2048.0833    
    687000   305.01629     -4.4695238      0              59.361898      2123.3635    
    688000   308.66958     -5.9542797      0              58.641675      2133.2235    
    689000   298.38764     -3.5391696      0              58.90506       2171.5727    
    690000   300.07994     -2.8806609      0              59.917721      2113.6691    
    691000   301.6379      -3.8328294      0              59.29159       2061.7927    
    692000   304.81601     -4.6352069      0              59.154303      2145.465     
    693000   305.8268      -4.1824295      0              59.818609      2135.2373    
    694000   302.60532     -6.4281943      0              56.898678      1967.6811    
    695000   294.27762     -4.4804697      0              57.103649      2019.819     
    696000   292.02702     -2.9977336      0              58.115395      2196.4242    
    697000   290.29757     -3.5019222      0              57.249282      2098.138     
    698000   297.54603     -4.2831787      0              57.984926      2119.1313    
    699000   295.11792     -5.3112285      0              56.448741      1963.0202    
    700000   290.98414     -4.4054445      0              56.48944       2066.0181    
    701000   304.7832      -5.5203358      0              58.262308      2008.043     
    702000   296.43327     -3.440907       0              58.594328      2175.324     
    703000   294.05461     -5.3287437      0              56.208705      2108.8346    
    704000   296.07239     -4.8188208      0              57.140892      2229.9863    
    705000   309.26807     -4.5103272      0              60.210874      2171.7933    
    706000   297.01707     -4.5947825      0              57.562626      2007.1676    
    707000   297.97425     -4.4724806      0              57.885238      2175.7304    
    708000   300.54069     -4.4924548      0              58.40235       2022.1689    
    709000   295.98735     -3.9563821      0              57.985533      2197.3481    
    710000   294.39095     -3.3252755      0              58.282558      2235.2906    
    711000   295.14456     -2.2658043      0              59.499739      2146.542     
    712000   300.63416     -5.4875818      0              57.426782      2041.2414    
    713000   291.54917     -5.571474       0              55.441655      2055.8809    
    714000   311.54933     -5.6377903      0              59.560815      2127.7931    
    715000   290.64056     -3.4721255      0              57.350857      2160.3268    
    716000   296.84165     -3.9763867      0              58.144311      2065.8682    
    717000   306.68226     -5.7332674      0              58.446796      2066.7029    
    718000   300.37847     -4.0870762      0              58.77378       2096.344     
    719000   307.61585     -5.8282003      0              58.547238      2065.6559    
    720000   308.34951     -4.0618323      0              60.46714       2098.4857    
    721000   303.2723      -5.0958512      0              58.370603      2062.9184    
    722000   293.4338      -4.4140413      0              56.993488      2042.9219    
    723000   305.38922     -6.389172       0              57.520294      2080.7783    
    724000   296.0814      -4.003657       0              57.957941      2119.2268    
    725000   312.36129     -4.1745903      0              61.193935      2224.264     
    726000   290.53956     -5.1922006      0              55.609645      2001.2978    
    727000   293.62427     -4.285557       0              57.161833      2087.8287    
    728000   302.86029     -3.627236       0              59.752995      2173.3884    
    729000   304.74311     -4.6902252      0              59.084028      2156.6821    
    730000   298.27593     -4.1246442      0              58.296209      2094.8323    
    731000   303.19399     -5.1229006      0              58.327165      2121.4973    
    732000   293.62499     -5.5460177      0              55.901523      2071.7344    
    733000   295.97815     -3.2199744      0              58.720016      2107.3913    
    734000   311.51423     -4.514659       0              60.676602      2118.723     
    735000   312.56925     -4.4470005      0              60.965045      2180.8909    
    736000   294.36079     -3.5991599      0              58.002363      2122.485     
    737000   292.42274     -4.9271241      0              56.268819      2087.2556    
    738000   304.112       -3.6784604      0              59.963719      2193.6144    
    739000   290.26232     -5.937317       0              54.80651       1979.8149    
    740000   300.65764     -5.0932293      0              57.826049      2134.0039    
    741000   302.52072     -4.1640002      0              59.145169      2137.8493    
    742000   281.36097     -3.639296       0              55.241727      2077.2178    
    743000   297.06039     -3.4433887      0              58.723084      2129.7993    
    744000   294.81536     -6.3978043      0              55.298847      2081.3264    
    745000   292.31372     -4.0106267      0              57.162501      2197.7438    
    746000   296.08735     -4.3484719      0              57.614371      2050.9675    
    747000   305.45484     -3.0728246      0              60.850373      2048.3595    
    748000   296.18949     -5.6778459      0              56.306372      2008.8334    
    749000   295.0156      -4.7855314      0              56.953025      2069.9768    
    750000   306.7057      -3.0953996      0              61.089569      2132.8346    
    751000   313.20318     -5.5539261      0              59.990784      2123.6012    
    752000   298.12002     -3.9027445      0              58.485481      2083.4       
    753000   297.52174     -4.5165775      0              57.746444      2120.8854    
    754000   309.67303     -5.7594287      0              59.04652       2071.0202    
    755000   292.01107     -4.9017002      0              56.208092      2089.1621    
    756000   301.36492     -3.1429583      0              59.924334      2133.7728    
    757000   296.66005     -5.7072086      0              56.375486      2036.4949    
    758000   303.63278     -3.8381079      0              59.703784      2153.2472    
    759000   295.65113     -3.0389217      0              58.832634      2097.3731    
    760000   295.80484     -4.226339       0              57.677383      2114.3361    
    761000   289.75663     -5.5071475      0              55.130853      2027.0637    
    762000   299.16228     -4.9501193      0              57.656221      2060.899     
    763000   298.70689     -4.2774129      0              58.233628      2009.4544    
    764000   302.74351     -5.3119662      0              58.043827      2108.1293    
    765000   292.43472     -4.8834006      0              56.315049      2106.0217    
    766000   289.16078     -5.4143759      0              55.098929      2091.55      
    767000   299.94442     -4.3156601      0              58.454361      2137.5907    
    768000   298.95164     -4.1808031      0              58.381457      2116.5068    
    769000   293.16757     -3.3141635      0              58.037651      2097.2486    
    770000   296.6977      -4.4252751      0              57.665298      2200.5312    
    771000   298.12533     -4.4403041      0              57.949032      2022.8723    
    772000   298.95991     -5.4951239      0              57.068867      2101.7736    
    773000   296.55012     -5.6925685      0              56.367121      2050.228     
    774000   314.47451     -5.0464204      0              60.764344      2049.9436    
    775000   303.52156     -3.6814997      0              59.837117      2112.6982    
    776000   299.84131     -3.6446224      0              59.103822      2176.8838    
    777000   296.01779     -6.5227629      0              55.425523      2046.5882    
    778000   299.58243     -5.7892272      0              56.90504       2043.6349    
    779000   309.66752     -6.2312335      0              58.573561      1975.0118    
    780000   292.12094     -4.8856353      0              56.247149      2021.5587    
    781000   308.84119     -6.4633668      0              58.1685        2095.0583    
    782000   296.75389     -4.7378562      0              57.364477      2026.0019    
    783000   298.1492      -4.2223923      0              58.171938      2127.1768    
    784000   297.1843      -4.3896781      0              57.802727      2099.8969    
    785000   290.79945     -4.3587705      0              56.497464      2029.3314    
    786000   307.21914     -4.9801025      0              59.312315      2104.5003    
    787000   284.50283     -5.0227984      0              54.515728      2054.8158    
    788000   288.65157     -4.1300048      0              56.276738      2077.3167    
    789000   302.02754     -4.7624601      0              58.4435        2057.0715    
    790000   296.7626      -4.4009512      0              57.703204      2089.3718    
    791000   309.94613     -3.9992461      0              60.863855      2079.5145    
    792000   306.10352     -5.0849426      0              58.974007      2104.0696    
    793000   299.56887     -5.9925196      0              56.69891       2087.7179    
    794000   305.60603     -6.6433786      0              57.311461      2027.8066    
    795000   304.05066     -4.48031        0              59.149034      2097.8593    
    796000   294.61992     -3.4366455      0              58.219106      2176.9775    
    797000   289.37216     -2.6987195      0              57.858821      2171.0701    
    798000   303.7552      -3.8677126      0              59.699799      2145.0175    
    799000   294.17767     -5.9221387      0              55.641061      2001.8288    
    800000   309.25567     -4.7664118      0              59.952194      2105.0739    
    801000   307.61898     -5.3484914      0              59.027601      2039.6401    
    802000   303.63375     -6.395009       0              57.147086      2060.7796    
    803000   300.00394     -3.0919094      0              59.690567      2248.3025    
    804000   307.4402      -4.2560958      0              60.082584      2137.3938    
    805000   303.63482     -4.4247258      0              59.117593      1956.1455    
    806000   304.22656     -6.7949323      0              56.871221      1934.0727    
    807000   300.56006     -4.5865507      0              58.312306      2145.7825    
    808000   292.67148     -3.5124519      0              57.735546      2114.4879    
    809000   292.33272     -4.7683006      0              56.408805      1993.2602    
    810000   300.069       -4.4636646      0              58.332427      2195.5988    
    811000   294.88462     -5.262911       0              56.448235      2084.2984    
    812000   290.35042     -4.3822608      0              56.380004      2011.8352    
    813000   299.173       -5.2744322      0              57.334152      1986.6045    
    814000   304.5453      -4.4784829      0              59.254374      2134.2653    
    815000   295.2654      -4.1989247      0              57.591908      2171.3663    
    816000   299.56213     -4.7565162      0              57.933502      2101.5411    
    817000   294.4571      -4.4077265      0              57.213952      2039.4173    
    818000   300.71608     -6.4406538      0              56.490855      1954.8046    
    819000   298.04369     -5.5875283      0              56.784724      2180.9103    
    820000   289.69594     -3.1475472      0              57.477752      2039.0519    
    821000   301.00718     -4.0779423      0              58.914485      2150.4352    
    822000   307.58551     -6.1365479      0              58.23254       2127.1255    
    823000   297.48749     -4.5246581      0              57.731196      2191.8219    
    824000   301.00377     -5.1512481      0              57.840465      2102.5274    
    825000   294.89107     -4.68473        0              57.027766      2100.5226    
    826000   305.43177     -4.2360328      0              59.682337      2037.6609    
    827000   304.48949     -3.142993       0              60.578184      2084.6893    
    828000   305.71458     -4.3942036      0              59.583351      2069.0011    
    829000   301.54656     -4.3663248      0              58.738979      2091.5044    
    830000   306.93964     -4.1283365      0              60.10559       2163.6231    
    831000   293.55451     -5.6778171      0              55.754974      2074.804     
    832000   302.98931     -4.9895578      0              58.417675      2173.1978    
    833000   303.37323     -4.5322774      0              58.955298      2077.0352    
    834000   296.39503     -3.6207955      0              58.406438      2123.3179    
    835000   297.40691     -2.9512571      0              59.287734      2242.3949    
    836000   291.46917     -4.3911736      0              56.605213      2175.4983    
    837000   296.56964     -5.8379946      0              56.22578       2025.6095    
    838000   296.82681     -2.9987128      0              59.118878      2126.1882    
    839000   297.38438     -4.2012404      0              58.033035      2141.964     
    840000   297.5765      -4.2936061      0              57.980874      2116.2836    
    841000   299.87483     -5.3543108      0              57.401148      2027.2121    
    842000   303.49924     -5.0734595      0              58.440486      2110.0308    
    843000   293.82442     -5.1327419      0              56.356534      1932.8052    
    844000   294.982       -3.7622245      0              57.9693        2140.9901    
    845000   301.87874     -4.2423693      0              58.932451      2084.2001    
    846000   297.40982     -5.2896311      0              56.94997       2016.1085    
[...]
   1814000   305.09366     -5.2881702      0              58.559443      2165.368     
   1815000   290.17831     -4.4829644      0              56.243282      2059.8259    
   1816000   303.74896     -4.2348832      0              59.331323      2189.2438    
   1817000   297.22333     -4.2316243      0              57.968949      2042.5138    
   1818000   297.82114     -2.6731155      0              59.652562      2114.781     
   1819000   292.61575     -2.8334596      0              58.402874      2177.4581    
   1820000   305.09483     -4.9516339      0              58.896226      2095.927     
   1821000   291.19209     -4.9953831      0              55.943019      2030.8723    
   1822000   291.62245     -4.1070921      0              56.921372      2141.8875    
   1823000   294.57191     -3.8689749      0              57.776729      2128.9606    
   1824000   294.73231     -5.7190822      0              55.96019       2100.8635    
   1825000   305.29786     -3.9634904      0              59.926857      2117.8267    
   1826000   293.99898     -4.6779515      0              56.847855      2123.228     
   1827000   293.71562     -5.9139791      0              55.552527      2014.3284    
   1828000   303.65622     -5.5211843      0              58.025614      2157.4499    
   1829000   299.59044     -4.3008326      0              58.395111      2106.1143    
   1830000   301.68091     -3.8403213      0              59.293098      2111.0741    
   1831000   291.37645     -3.7149452      0              57.262039      2058.9515    
   1832000   298.76452     -3.7565964      0              58.766505      2008.7569    
   1833000   301.36514     -5.8942027      0              57.173135      2044.7525    
   1834000   305.22781     -4.2581112      0              59.617576      2076.4656    
   1835000   299.9074      -4.2381807      0              58.524093      2139.8222    
   1836000   304.51267     -5.7171126      0              58.008916      2069.314     
   1837000   306.74226     -4.517982       0              59.674638      2139.6362    
   1838000   300.80093     -4.5601987      0              58.389066      2127.4512    
   1839000   298.07531     -1.973347       0              60.405521      2177.9878    
   1840000   304.78501     -3.4599966      0              60.323026      2067.2251    
   1841000   294.27904     -4.3799599      0              57.204456      2022.8832    
   1842000   304.04751     -5.0612881      0              58.567395      1986.0404    
   1843000   293.82213     -4.6633015      0              56.825496      2091.3401    
   1844000   303.64869     -4.0197         0              59.525522      2100.1479    
   1845000   286.9601      -4.9805684      0              55.072196      2005.3987    
   1846000   300.08859     -5.0892719      0              57.710919      2058.123     
   1847000   304.71587     -3.7653903      0              60.003163      2145.7314    
   1848000   305.34134     -3.4476437      0              60.451804      2247.9756    
   1849000   298.30754     -3.7380746      0              58.689393      2129.1002    
   1850000   299.276       -4.1771164      0              58.453022      2158.4934    
   1851000   296.08729     -4.2113328      0              57.751499      2141.1993    
   1852000   295.88235     -4.8673818      0              57.052562      2049.6222    
   1853000   301.62873     -4.9337388      0              58.188761      2120.0471    
   1854000   292.576       -4.295389       0              56.932627      2142.6007    
   1855000   314.21074     -2.8192409      0              62.936324      2145.8914    
   1856000   305.74716     -6.1690235      0              57.81535       2050.3528    
   1857000   303.77327     -5.9364739      0              57.634818      2010.9785    
   1858000   301.24237     -4.0075162      0              59.034129      2191.1963    
   1859000   311.02821     -5.2104065      0              59.879143      2150.6222    
   1860000   303.2745      -5.349478       0              58.117436      2069.9748    
   1861000   311.06104     -4.5317994      0              60.564621      2108.8263    
   1862000   307.38312     -3.95251        0              60.374225      2145.1173    
   1863000   289.16386     -5.0454644      0              55.468485      2031.2342    
   1864000   293.68397     -4.1074125      0              57.352471      2003.5163    
   1865000   284.67177     -4.4217824      0              55.152099      2208.6916    
   1866000   306.80264     -5.0834819      0              59.121775      2101.4264    
   1867000   305.48105     -3.3525         0              60.576184      2135.6133    
   1868000   290.2411      -5.958863       0              54.780524      2078.7096    
   1869000   300.07897     -4.7306392      0              58.06754       2069.4351    
   1870000   301.33482     -4.2658751      0              58.795119      2082.6388    
   1871000   295.58978     -3.9156177      0              57.943098      2027.162     
   1872000   298.47808     -5.7040707      0              56.759085      2083.3698    
   1873000   285.87298     -4.00107        0              55.82419       2095.5354    
   1874000   308.264       -4.7426496      0              59.768429      2072.51      
   1875000   298.72441     -1.9514857      0              60.56322       2370.0628    
   1876000   306.72872     -3.0794281      0              61.110358      2215.4549    
   1877000   304.68589     -5.6979399      0              58.064339      2023.4206    
   1878000   304.01629     -3.2099725      0              60.412177      2148.0713    
   1879000   296.77726     -3.9234269      0              58.183797      2156.4856    
   1880000   304.56144     -4.7414141      0              58.99482       2139.1638    
   1881000   305.05255     -3.9967829      0              59.842228      2093.354     
   1882000   303.90493     -4.9599021      0              58.638943      2036.4594    
   1883000   313.30603     -3.812436       0              61.753798      2207.3024    
   1884000   303.88399     -4.4608069      0              59.133657      2037.5461    
   1885000   306.60232     -6.0800243      0              58.083309      2037.1255    
   1886000   302.31925     -4.8814575      0              58.385548      2149.3675    
   1887000   300.85268     -4.9041617      0              58.055932      2067.094     
   1888000   298.35989     -4.5817038      0              57.856719      2111.8311    
   1889000   296.34933     -4.2282369      0              57.789432      2161.2852    
   1890000   309.6624      -4.1172027      0              60.686521      2148.2498    
   1891000   303.84415     -3.9742509      0              59.611875      2102.0333    
   1892000   300.78683     -2.1948001      0              60.751514      2161.7183    
   1893000   303.52756     -5.8630895      0              57.656782      2002.763     
   1894000   307.78716     -4.8635616      0              59.547726      2009.97      
   1895000   295.88314     -3.7914019      0              58.128706      2170.068     
   1896000   304.39178     -6.450311       0              57.250418      2076.6188    
   1897000   303.40272     -3.7757703      0              59.717976      2102.522     
   1898000   291.23618     -6.3258445      0              54.621784      1997.902     
   1899000   307.84893     -4.6484642      0              59.775752      2131.9804    
   1900000   300.33441     -5.242503       0              57.609133      2010.2922    
   1901000   296.93579     -4.2238339      0              57.916565      2056.1955    
   1902000   301.38465     -4.0851523      0              58.98627       2101.01      
   1903000   306.63171     -4.5350303      0              59.634455      2076.0482    
   1904000   290.75855     -5.2353735      0              55.6123        2062.9808    
   1905000   302.65275     -3.4553188      0              59.881481      2075.1129    
   1906000   301.46617     -3.1324865      0              59.955994      2200.9451    
   1907000   293.68723     -4.2678198      0              57.192746      2180.3044    
   1908000   310.98798     -3.3586768      0              61.722454      2159.5787    
   1909000   303.724       -4.3150848      0              59.245898      2166.0301    
   1910000   297.67727     -4.8140305      0              57.481539      1983.3754    
   1911000   292.71026     -5.297282       0              55.95883       2057.785     
   1912000   302.38023     -4.8940869      0              58.385681      2129.8308    
   1913000   295.54929     -5.9379665      0              55.912277      2043.1119    
   1914000   305.75907     -3.6700291      0              60.316836      2155.783     
   1915000   290.19429     -4.2920217      0              56.437568      2066.1972    
   1916000   302.80711     -3.5687333      0              59.800369      2159.0548    
   1917000   309.42231     -5.0703545      0              59.683125      2191.6279    
   1918000   307.30202     -3.6737561      0              60.636007      2194.0185    
   1919000   298.30657     -3.798032       0              58.629232      2129.5545    
   1920000   299.89633     -5.368668       0              57.39129       2043.0561    
   1921000   290.79806     -4.3930081      0              56.462935      2087.7037    
   1922000   306.62068     -5.9619196      0              58.205256      2144.9875    
   1923000   298.05884     -5.4344769      0              56.940945      1992.3565    
   1924000   302.51159     -5.9286966      0              57.378563      2090.3257    
   1925000   298.92252     -5.209726       0              57.346441      2112.0903    
   1926000   301.94386     -3.2839466      0              59.904502      2070.5172    
   1927000   302.74872     -3.8570146      0              59.499868      2082.0305    
   1928000   296.54464     -5.7274605      0              56.331082      2110.6872    
   1929000   297.93479     -4.334274       0              58.015188      2157.4543    
   1930000   301.52159     -5.9222508      0              57.177828      2009.0192    
   1931000   310.89931     -5.1054511      0              59.957123      2042.0177    
   1932000   303.88623     -4.2579682      0              59.336965      2157.3967    
   1933000   298.33655     -4.3212399      0              58.1123        2092.9736    
   1934000   304.66947     -4.9406337      0              58.818208      2041.1841    
   1935000   304.76716     -4.2483034      0              59.530983      2038.6328    
   1936000   287.39137     -3.2706098      0              56.872408      2113.86      
   1937000   296.08345     -4.2365476      0              57.725481      2057.7545    
   1938000   304.89165     -4.8204372      0              58.984901      2050.1121    
   1939000   301.68159     -3.9629465      0              59.170617      2182.7809    
   1940000   296.30987     -5.2315293      0              56.777881      2047.1437    
   1941000   288.11734     -3.6752684      0              56.619674      2170.1331    
   1942000   315.2947      -4.5543542      0              61.428054      2123.7967    
   1943000   301.21968     -4.247676       0              58.789221      2172.0313    
   1944000   298.90007     -4.4699413      0              58.081527      2213.3234    
   1945000   303.11833     -3.8276237      0              59.606608      2098.8627    
   1946000   300.44631     -3.8134247      0              59.061627      2130.6089    
   1947000   296.25664     -5.4709315      0              56.52734       2019.5112    
   1948000   302.79518     -3.0403131      0              60.326293      2051.4084    
   1949000   304.25338     -3.2615056      0              60.41026       2033.2396    
   1950000   303.25802     -4.9725011      0              58.490964      2051.1402    
   1951000   292.90712     -5.3844977      0              55.912813      2067.2291    
   1952000   305.27568     -4.5591427      0              59.326563      2092.4479    
   1953000   294.8072      -4.0020476      0              57.692897      2086.0204    
   1954000   297.04876     -3.6358788      0              58.528161      2050.8855    
   1955000   296.27058     -5.4542074      0              56.54698       2122.9661    
   1956000   301.53747     -3.362575       0              59.740828      2098.8196    
   1957000   301.2844      -3.1367536      0              59.913688      2173.9859    
   1958000   295.14181     -3.1406967      0              58.624271      2038.2436    
   1959000   295.30857     -6.138374       0              55.661493      2085.3803    
   1960000   302.20109     -5.7978951      0              57.444383      2020.4788    
   1961000   300.267       -3.1419776      0              59.69555       2103.4077    
   1962000   294.52196     -3.9702838      0              57.664966      2037.2257    
   1963000   306.17418     -4.2026292      0              59.871107      2138.4049    
   1964000   301.23444     -4.429913       0              58.610073      2107.9215    
   1965000   298.62534     -2.7145199      0              59.779455      2209.4799    
   1966000   300.91023     -3.7243186      0              59.24782       2107.7747    
   1967000   300.07754     -4.1846844      0              58.613194      2108.4434    
   1968000   312.85935     -3.4119663      0              62.060791      2150.1227    
   1969000   309.61005     -5.1975614      0              59.595206      2032.974     
   1970000   295.96892     -4.7213551      0              57.216705      2030.0116    
   1971000   303.45626     -3.5470402      0              59.957912      2124.7322    
   1972000   314.95067     -4.2590643      0              61.651348      2129.6694    
   1973000   294.62356     -5.550544       0              56.105968      2077.4764    
   1974000   300.19915     -5.4848032      0              57.338526      1997.4925    
   1975000   304.85345     -4.8234145      0              58.973929      2028.611     
   1976000   304.17589     -4.6820837      0              58.973465      2075.8214    
   1977000   291.45793     -3.2388284      0              57.755206      2042.8069    
   1978000   300.35262     -5.3120088      0              57.543437      2150.5998    
   1979000   294.76253     -4.0289263      0              57.65667       2119.4102    
   1980000   304.17914     -5.1103554      0              58.545875      2068.8489    
   1981000   310.88783     -4.4396906      0              60.620482      2098.0794    
   1982000   300.22245     -4.5166593      0              58.311545      2172.4252    
   1983000   300.67147     -3.7192058      0              59.202966      2135.0795    
   1984000   298.40325     -3.7991738      0              58.648324      2076.9858    
   1985000   290.9557      -5.5892491      0              55.299684      2039.9692    
   1986000   299.41586     -5.2209775      0              57.43843       2109.7249    
   1987000   299.57569     -5.3242722      0              57.368584      2130.1278    
   1988000   304.49384     -1.7774613      0              61.944626      2262.8389    
   1989000   311.52461     -3.9309085      0              61.262524      2144.0611    
   1990000   298.87737     -3.7701706      0              58.776546      2071.4326    
   1991000   299.7927      -4.8535526      0              57.884718      2088.3081    
   1992000   299.01009     -3.4107508      0              59.163741      2213.1749    
   1993000   301.83914     -4.9109711      0              58.255562      2087.2078    
   1994000   297.15348     -4.2460697      0              57.939885      2003.0292    
   1995000   306.91048     -4.667229       0              59.560594      2111.4202    
   1996000   309.68102     -3.6431947      0              61.164426      2180.8213    
   1997000   303.85649     -4.842004       0              58.746704      2030.4135    
   1998000   296.53423     -4.2620819      0              57.794282      2116.6246    
   1999000   298.3127      -6.0479719      0              56.380576      2071.5608    
   2000000   302.26148     -3.8440531      0              59.410864      2213.6255    
   2000101   302.57987     -3.8345322      0              59.487014      2222.7846    
Loop time of 48425.9 on 16 procs for 2000000 steps with 1620 atoms

Performance: 1.784 ns/day, 13.452 hours/ns, 41.300 timesteps/s
88.7% CPU use with 16 MPI tasks x 1 OpenMP threads

MPI task timing breakdown:
Section |  min time  |  avg time  |  max time  |%varavg| %total
---------------------------------------------------------------
Pair    | 9340.8     | 10846      | 12302      |1233.5 | 22.40
Bond    | 1.3665     | 1.704      | 2.0562     |  16.6 |  0.00
Neigh   | 14.805     | 16.506     | 18.333     |  39.5 |  0.03
Comm    | 22396      | 23378      | 24400      | 483.7 | 48.28
Output  | 50.604     | 51.169     | 51.642     |   5.8 |  0.11
Modify  | 9058.1     | 11008      | 12952      |1844.2 | 22.73
Other   |            | 3124       |            |       |  6.45

Nlocal:         101.25 ave         111 max          95 min
Histogram: 1 3 1 5 2 2 0 1 0 1
Nghost:        5063.75 ave        5093 max        5022 min
Histogram: 1 0 1 0 3 3 5 0 0 3
Neighs:        51677.2 ave       60970 max       46244 min
Histogram: 2 3 1 4 1 3 1 0 0 1

Total # of neighbors = 826836
Ave neighs/atom = 510.39259
Ave special neighs/atom = 0
Neighbor list builds = 10413
Dangerous builds = 0
comm_modify cutoff 27.58
compute myRDF all rdf 1129 cutoff 22.58
fix 2 all ave/time 1 1 1 c_myRDF[*] file ljg2_nvt_51rdf.rdf mode vector
run 0 pre yes post no
Generated 0 of 0 mixed pair_coeff terms from geometric mixing rule
WARNING: Compute rdf cutoff less than neighbor cutoff - forcing a needless neighbor list build (src/compute_rdf.cpp:179)
Neighbor list info ...
  update every 1 steps, delay 0 steps, check yes
  max neighbors/atom: 200000, page size: 2000000000
  master list distance cutoff = 27
  ghost atom cutoff = 27.58
  binsize = 13.5, bins = 4 5 4
  4 neighbor lists, perpetual/occasional/extra = 3 1 0
  (1) pair lj/cut, perpetual
      attributes: half, newton on
      pair build: half/bin/newton
      stencil: half/bin/3d
      bin: standard
  (2) pair gauss/cut, perpetual, copy from (1)
      attributes: half, newton on
      pair build: copy
      stencil: none
      bin: none
  (3) pair gauss/cut, perpetual, copy from (1)
      attributes: half, newton on
      pair build: copy
      stencil: none
      bin: none
  (4) compute rdf, occasional
      attributes: half, newton on, cut 24.58
      pair build: half/bin/newton
      stencil: half/bin/3d
      bin: standard
Per MPI rank memory allocation (min/avg/max) = 3.053e+04 | 3.053e+04 | 3.053e+04 Mbytes
   Step          Temp          E_pair         E_mol          TotEng         Press     
   2000101   302.57987     -3.8345322      0              59.487014      2222.7846    
Loop time of 4.30406e-06 on 16 procs for 0 steps with 1620 atoms

uncompute myRDF
unfix 2
write_data ljg2_nvt_51/ca_md.data nocoeff nofix
System init for write_data ...
Generated 0 of 0 mixed pair_coeff terms from geometric mixing rule
Neighbor list info ...
  update every 1 steps, delay 0 steps, check yes
  max neighbors/atom: 200000, page size: 2000000000
  master list distance cutoff = 27
  ghost atom cutoff = 27.58
  binsize = 13.5, bins = 4 5 4
  3 neighbor lists, perpetual/occasional/extra = 3 0 0
  (1) pair lj/cut, perpetual
      attributes: half, newton on
      pair build: half/bin/newton
      stencil: half/bin/3d
      bin: standard
  (2) pair gauss/cut, perpetual, copy from (1)
      attributes: half, newton on
      pair build: copy
      stencil: none
      bin: none
  (3) pair gauss/cut, perpetual, copy from (1)
      attributes: half, newton on
      pair build: copy
      stencil: none
      bin: none
Total wall time: 13:27:17
