region box block 0 52.794504272175 0 54.794296100667 0 45.195295323908
units metal
dimension 3
boundary p p p
atom_style full
create_box 1 box
Created orthogonal box = (0 0 0) to (52.794504 54.794296 45.195295)
  2 by 4 by 2 MPI processor grid
create_atoms 1 random 1620 48 box
Created 1620 atoms
  using lattice units in orthogonal box = (0 0 0) to (52.794504 54.794296 45.195295)
  create_atoms CPU = 0.003 seconds
mass 1 40.078
pair_style hybrid/overlay lj/cut 25 gauss/cut 25 gauss/cut 25
pair_coeff 1 1 lj/cut 0.009507177838705264 3.7584971993521488
pair_coeff 1 1 gauss/cut 1 -0.0597999248039827 5.991246456844763 0.601172550524922
pair_coeff 1 1 gauss/cut 2 0.0726183915985775 5.919659952808235 0.9307156951487607
run 1
WARNING: No fixes with time integration, atoms won't move (src/verlet.cpp:60)
Generated 0 of 0 mixed pair_coeff terms from geometric mixing rule
Neighbor list info ...
  update every 1 steps, delay 10 steps, check yes
  max neighbors/atom: 2000, page size: 100000
  master list distance cutoff = 27
  ghost atom cutoff = 27
  binsize = 13.5, bins = 4 5 4
  3 neighbor lists, perpetual/occasional/extra = 3 0 0
  (1) pair lj/cut, perpetual
      attributes: half, newton on
      pair build: half/bin/newton
      stencil: half/bin/3d
      bin: standard
  (2) pair gauss/cut, perpetual, copy from (1)
      attributes: half, newton on
      pair build: copy
      stencil: none
      bin: none
  (3) pair gauss/cut, perpetual, copy from (1)
      attributes: half, newton on
      pair build: copy
      stencil: none
      bin: none
Per MPI rank memory allocation (min/avg/max) = 6.988 | 6.995 | 7.006 Mbytes
   Step          Temp          E_pair         E_mol          TotEng         Press     
         0   0              2.9109057e+14  0              2.9109057e+14  1.4268594e+16
         1   0              2.9109057e+14  0              2.9109057e+14  1.4268594e+16
Loop time of 0.0123653 on 16 procs for 1 steps with 1620 atoms

Performance: 6.987 ns/day, 3.435 hours/ns, 80.871 timesteps/s
99.6% CPU use with 16 MPI tasks x 1 OpenMP threads

MPI task timing breakdown:
Section |  min time  |  avg time  |  max time  |%varavg| %total
---------------------------------------------------------------
Pair    | 0.0053302  | 0.0075066  | 0.011979   |   1.6 | 60.71
Bond    | 8.15e-07   | 9.1431e-07 | 1.166e-06  |   0.0 |  0.01
Neigh   | 0          | 0          | 0          |   0.0 |  0.00
Comm    | 0.00028282 | 0.0047544  | 0.0069318  |   2.0 | 38.45
Output  | 5.3827e-05 | 6.0483e-05 | 6.4876e-05 |   0.0 |  0.49
Modify  | 1.293e-06  | 1.4205e-06 | 1.804e-06  |   0.0 |  0.01
Other   |            | 4.154e-05  |            |       |  0.34

Nlocal:         101.25 ave         117 max          82 min
Histogram: 1 0 1 2 2 4 3 0 2 1
Nghost:           5047 ave        5174 max        4915 min
Histogram: 1 1 1 3 3 2 1 2 0 2
Neighs:        51702.8 ave       60132 max       38370 min
Histogram: 1 0 0 1 3 2 4 1 2 2

Total # of neighbors = 827244
Ave neighs/atom = 510.64444
Ave special neighs/atom = 0
Neighbor list builds = 0
Dangerous builds = 0
thermo 1000
neighbor 2.0 bin
neigh_modify every 1 delay 0 check yes one 200000 page 2000000000
minimize 0.0 1.0e-8 100 1000
Generated 0 of 0 mixed pair_coeff terms from geometric mixing rule
Neighbor list info ...
  update every 1 steps, delay 0 steps, check yes
  max neighbors/atom: 200000, page size: 2000000000
  master list distance cutoff = 27
  ghost atom cutoff = 27
  binsize = 13.5, bins = 4 5 4
  3 neighbor lists, perpetual/occasional/extra = 3 0 0
  (1) pair lj/cut, perpetual
      attributes: half, newton on
      pair build: half/bin/newton
      stencil: half/bin/3d
      bin: standard
  (2) pair gauss/cut, perpetual, copy from (1)
      attributes: half, newton on
      pair build: copy
      stencil: none
      bin: none
  (3) pair gauss/cut, perpetual, copy from (1)
      attributes: half, newton on
      pair build: copy
      stencil: none
      bin: none
Per MPI rank memory allocation (min/avg/max) = 2.29e+04 | 2.29e+04 | 2.29e+04 Mbytes
   Step          Temp          E_pair         E_mol          TotEng         Press     
         1   0              2.9109057e+14  0              2.9109057e+14  1.4268594e+16
       101   0             -47.788404      0             -47.788404      772.29524    
Loop time of 1.14526 on 16 procs for 100 steps with 1620 atoms

99.9% CPU use with 16 MPI tasks x 1 OpenMP threads

Minimization stats:
  Stopping criterion = max iterations
  Energy initial, next-to-last, final = 
       291090567467862  -47.5464816277413   -47.788403868247
  Force two-norm initial, final = 2.7689012e+16 0.48747003
  Force max component initial, final = 1.6102971e+16 0.045669154
  Final line search alpha, max atom move = 1 0.045669154
  Iterations, force evaluations = 100 130

MPI task timing breakdown:
Section |  min time  |  avg time  |  max time  |%varavg| %total
---------------------------------------------------------------
Pair    | 0.68751    | 0.94007    | 1.082      |  10.0 | 82.08
Bond    | 0.00010291 | 0.00010682 | 0.00011262 |   0.0 |  0.01
Neigh   | 0.0088758  | 0.011192   | 0.012474   |   0.8 |  0.98
Comm    | 0.046171   | 0.18935    | 0.44415    |  22.5 | 16.53
Output  | 3.2098e-05 | 3.2491e-05 | 3.306e-05  |   0.0 |  0.00
Modify  | 0          | 0          | 0          |   0.0 |  0.00
Other   |            | 0.004512   |            |       |  0.39

Nlocal:         101.25 ave         112 max          81 min
Histogram: 1 0 0 1 1 1 4 5 1 2
Nghost:        5047.81 ave        5162 max        4908 min
Histogram: 1 1 1 2 2 2 0 5 0 2
Neighs:        51694.6 ave       59883 max       38080 min
Histogram: 1 0 0 1 2 3 3 2 3 1

Total # of neighbors = 827113
Ave neighs/atom = 510.56358
Ave special neighs/atom = 0
Neighbor list builds = 7
Dangerous builds = 0
timestep 0.0005
fix 1 all nvt temp 300.0 300.0 $(100.0*dt)
fix 1 all nvt temp 300.0 300.0 0.050000000000000002776
fix removeMomentum all momentum 1 linear 1 1 1
dump 1 all custom 1000 ljg2_nvt_48/ca.traj id mol type mass x y z
dump_modify 1 sort id
run 2000000
Generated 0 of 0 mixed pair_coeff terms from geometric mixing rule
Per MPI rank memory allocation (min/avg/max) = 2.289e+04 | 2.289e+04 | 2.289e+04 Mbytes
   Step          Temp          E_pair         E_mol          TotEng         Press     
       101   0             -47.788404      0             -47.788404      772.29524    
      1000   180.74476     -44.010643      0             -6.1857941      1191.9277    
      2000   290.87362     -12.733696      0              48.138058      1618.5019    
      3000   292.46799     -7.2924609      0              53.912952      2030.0047    
      4000   288.96346     -4.4600335      0              56.011977      2019.3367    
      5000   302.45203     -3.9617734      0              59.33302       2056.608     
      6000   293.6997      -4.5347495      0              56.928425      2059.3771    
      7000   295.70766     -5.0058937      0              56.877492      2092.0799    
      8000   306.68015     -5.2595888      0              58.920033      2076.127     
      9000   299.61795     -4.1159901      0              58.585709      2147.2456    
     10000   298.96712     -3.3798162      0              59.185683      2185.7775    
     11000   307.02584     -3.9408711      0              60.311093      2020.344     
     12000   299.66347     -4.1860998      0              58.525127      1969.8115    
     13000   295.6407      -4.5076707      0              57.361702      2229.8439    
     14000   295.42499     -5.361743       0              56.462487      2116.9015    
     15000   300.11562     -3.8296145      0              58.976233      2278.8237    
     16000   306.96267     -5.0774806      0              59.161265      2131.3234    
     17000   299.36731     -3.8828115      0              58.766437      1998.1291    
     18000   298.89293     -5.7178332      0              56.832141      1959.73      
     19000   302.3381      -3.0193217      0              60.251631      2166.06      
     20000   296.24661     -4.4965443      0              57.499628      2022.1979    
     21000   291.37856     -5.7280035      0              55.249422      1951.5136    
     22000   287.29009     -5.9476876      0              54.174134      2036.607     
     23000   299.7272      -4.4868713      0              58.237692      2170.2502    
     24000   293.58497     -2.9310717      0              58.508094      2085.2104    
     25000   296.79288     -4.5724194      0              57.538072      2091.3853    
     26000   303.96728     -6.0384254      0              57.573469      2077.4355    
     27000   296.0306      -5.979002       0              55.971965      2038.4296    
     28000   300.34614     -6.2683034      0              56.585786      1996.9449    
     29000   295.87659     -4.7186684      0              57.200069      2095.7661    
     30000   302.98104     -2.7971834      0              60.608318      2144.8083    
     31000   306.81817     -3.8896944      0              60.318811      2081.9676    
     32000   288.19169     -5.3719877      0              54.938514      2090.019     
     33000   302.6261      -4.3857879      0              58.945434      2013.5546    
     34000   289.4406      -5.0369817      0              55.534882      2047.5824    
     35000   300.40447     -5.2190464      0              57.64725       2041.7757    
     36000   302.12892     -4.4324712      0              58.794705      2113.7184    
     37000   303.78679     -4.7853381      0              58.788784      2056.8347    
     38000   307.7012      -5.1628197      0              59.23048       2073.3993    
     39000   301.67735     -3.6831566      0              59.449519      2067.7976    
     40000   288.7081      -2.8775744      0              57.540998      2116.1355    
     41000   293.76755     -4.7566729      0              56.7207        2115.8091    
     42000   296.61142     -4.8990751      0              57.173442      2062.8042    
     43000   306.64176     -5.1756152      0              58.995973      2115.5127    
     44000   297.91356     -5.6133011      0              56.731718      2033.3849    
     45000   301.81636     -5.7666704      0              57.395096      2044.7187    
     46000   310.09575     -4.1201335      0              60.774278      2130.4       
     47000   305.28927     -4.4859817      0              59.402567      2137.2959    
     48000   292.67748     -3.9732256      0              57.276027      2095.7392    
     49000   305.03494     -5.0801524      0              58.755173      2091.5277    
     50000   298.00653     -4.0631587      0              58.301315      2116.8106    
     51000   310.32083     -3.7358318      0              61.205683      2037.9841    
     52000   301.87487     -5.2204023      0              57.953608      2124.1649    
     53000   306.80874     -3.7472995      0              60.459232      2023.1512    
     54000   295.91353     -5.3676157      0              56.558853      2049.4425    
     55000   291.6298      -2.9196232      0              58.11038       2047.2662    
     56000   296.67395     -5.7705428      0              56.31506       1900.9703    
     57000   301.7172      -6.5376849      0              56.60333       2006.094     
     58000   309.74084     -4.2913783      0              60.52876       2153.3898    
     59000   306.51416     -4.2797459      0              59.865139      2082.5892    
     60000   300.73216     -4.5866739      0              58.348199      2098.1464    
     61000   293.49625     -5.4708395      0              55.949759      1924.7104    
     62000   308.5347      -7.1948028      0              57.372925      2094.0219    
     63000   298.62404     -4.7073739      0              57.786327      1997.9203    
     64000   301.37641     -4.5005907      0              58.569105      2079.726     
     65000   289.78732     -4.4952386      0              56.149184      2082.5172    
     66000   297.29324     -4.4415209      0              57.773682      2110.5288    
     67000   310.65496     -5.2605513      0              59.750888      2137.8431    
     68000   307.43824     -4.7874315      0              59.550837      2008.2503    
     69000   297.3707      -3.6357468      0              58.595666      2123.7438    
     70000   295.14182     -4.9150692      0              56.849901      2110.337     
     71000   293.91326     -5.3443516      0              56.163515      2042.2365    
     72000   298.65041     -5.2934114      0              57.20581       2108.2932    
     73000   301.92293     -3.3025463      0              59.881522      2135.9643    
     74000   300.15054     -4.4205595      0              58.392597      2079.3703    
     75000   291.50225     -4.0929718      0              56.910338      2109.427     
     76000   299.32838     -4.1995914      0              58.441509      2206.0843    
     77000   300.09091     -4.8960863      0              57.90459       2093.7616    
     78000   296.06492     -4.5801617      0              57.377988      2176.1642    
     79000   297.75074     -5.4174942      0              56.893451      2096.7411    
     80000   289.72752     -3.4967187      0              57.135189      2151.4447    
     81000   298.54073     -5.6921392      0              56.784129      2069.9842    
     82000   300.66787     -4.2788142      0              58.642604      2092.4942    
     83000   293.28494     -5.37823        0              55.998148      2100.3589    
     84000   289.88433     -4.7580939      0              55.90663       2098.546     
     85000   295.42456     -4.3840568      0              57.440083      2131.2587    
     86000   302.14546     -4.5493872      0              58.68125       2078.803     
     87000   302.22545     -5.052913       0              58.194464      2087.9719    
     88000   309.45103     -5.0260002      0              59.733489      2151.5392    
     89000   302.09261     -3.4745102      0              59.745066      2223.6248    
     90000   298.36154     -4.4565765      0              57.982191      2009.1486    
     91000   296.97976     -5.052168       0              57.097433      2167.6819    
     92000   309.35851     -3.9498606      0              60.790267      2027.3739    
     93000   297.8173      -4.6046951      0              57.720178      2137.5321    
     94000   303.26254     -3.2838999      0              60.180511      2160.7907    
     95000   296.48493     -4.1300763      0              57.915969      2140.0433    
     96000   295.53411     -3.6366588      0              58.210408      2081.2683    
     97000   307.32711     -3.3811251      0              60.933888      2063.0558    
     98000   295.16289     -4.6367896      0              57.13259       2037.625     
     99000   308.78957     -4.6354602      0              59.985604      2191.1474    
    100000   303.11127     -5.1338823      0              58.298871      2010.4505    
    101000   302.21313     -5.1218933      0              58.122906      2019.9418    
    102000   295.80774     -6.0585835      0              55.845746      2029.0475    
    103000   291.34426     -3.7968014      0              57.173445      2176.6108    
    104000   295.21696     -3.8057262      0              57.974969      2106.4636    
    105000   291.07438     -3.9946929      0              56.919075      2209.8425    
    106000   294.613       -4.6657848      0              56.988518      2057.8153    
    107000   302.57166     -4.8058364      0              58.513993      2048.026     
    108000   301.06066     -4.2545193      0              58.7491        2088.7418    
    109000   300.66426     -4.675447       0              58.245217      2105.8844    
    110000   309.08861     -3.1000044      0              61.583641      2200.2491    
    111000   298.80104     -4.2692962      0              58.261447      2124.5487    
    112000   299.44066     -4.5911098      0              58.073489      2065.8523    
    113000   294.92384     -4.5034809      0              57.215872      2132.3805    
    114000   304.76312     -5.6473555      0              58.131085      2033.4903    
    115000   295.71185     -5.0385065      0              56.845755      2132.713     
    116000   299.15105     -6.2204387      0              56.383553      1967.7485    
    117000   295.64634     -5.2381984      0              56.632355      2086.6103    
    118000   293.15136     -5.9126895      0              55.435733      2085.9046    
    119000   304.0635      -5.5333038      0              58.098726      2106.1149    
    120000   295.73088     -4.7900191      0              57.098226      2143.3009    
    121000   289.75814     -6.1664048      0              54.47191       1968.3417    
    122000   300.49473     -4.3237489      0              58.561436      2148.9686    
    123000   294.61806     -5.8201371      0              55.835226      2044.6544    
    124000   302.02133     -4.5495662      0              58.655094      2135.9745    
    125000   311.76875     -4.8133071      0              60.431217      2106.9789    
    126000   305.24172     -3.4747451      0              60.403853      2150.9462    
    127000   302.03476     -4.4217875      0              58.785684      2100.6004    
    128000   298.06584     -3.074391       0              59.302495      2156.9484    
    129000   300.43245     -4.1883852      0              58.683766      2106.9258    
    130000   288.69028     -4.475432       0              55.939411      2038.4416    
    131000   301.5784      -5.2207878      0              57.89118       2059.7564    
    132000   304.78044     -4.3075802      0              59.474484      2101.6416    
    133000   304.97007     -2.1173284      0              61.704421      2139.0529    
    134000   300.34357     -3.9799653      0              58.873586      2096.3711    
    135000   287.2723      -4.2604986      0              55.857601      1930.3647    
    136000   296.48671     -5.5953431      0              56.451075      1994.5184    
    137000   304.31213     -5.3272297      0              58.356831      2045.6052    
    138000   305.68422     -5.1994235      0              58.771777      2080.4309    
    139000   301.25634     -4.792675       0              58.251894      2085.1233    
    140000   302.3839      -5.0501863      0              58.23035       2043.8794    
    141000   301.82371     -2.3583541      0              60.804951      2179.9032    
    142000   291.21703     -3.7160658      0              57.227556      2237.9867    
    143000   298.50441     -4.6724689      0              57.796199      2050.0708    
    144000   293.60779     -6.4023549      0              55.041585      2053.5902    
    145000   309.87239     -4.4248869      0              60.422783      2156.025     
    146000   306.75682     -4.3624398      0              59.833227      2110.3435    
    147000   297.87813     -4.6952872      0              57.642317      2071.1959    
    148000   298.5665      -4.1210957      0              58.360566      2174.9153    
    149000   308.05338     -5.0781624      0              59.388839      2030.6829    
    150000   299.70635     -4.3465471      0              58.373652      2202.2217    
    151000   299.44227     -3.6184253      0              59.046509      2051.3782    
    152000   299.13257     -5.1386655      0              57.461458      1995.6579    
    153000   290.30283     -4.7156314      0              56.036672      2090.9405    
    154000   305.23304     -5.5140077      0              58.362774      1999.1483    
    155000   297.03898     -5.018672       0              57.143322      2016.4012    
    156000   299.56474     -4.8064297      0              57.884135      2158.0774    
    157000   305.27656     -6.0515937      0              57.834295      2041.0624    
    158000   303.2492      -4.4253603      0              59.03626       2148.7708    
    159000   301.1168      -4.5716507      0              58.443717      2064.8114    
    160000   299.43347     -4.2043267      0              58.458766      2026.8387    
    161000   298.90256     -5.6193524      0              56.932637      2099.4934    
    162000   297.04343     -2.92868        0              59.234245      2174.8521    
    163000   293.92344     -3.5094267      0              58.000572      2132.0691    
    164000   298.44051     -5.0295475      0              57.425746      2038.2019    
    165000   286.0441      -4.0265701      0              55.834501      2026.8251    
    166000   298.18267     -5.5465415      0              56.854794      2031.9365    
    167000   297.76766     -5.6990833      0              56.615403      2020.3137    
    168000   295.17241     -3.3333295      0              58.438043      2126.3562    
    169000   298.75557     -5.5831653      0              56.938062      1988.3314    
    170000   304.95547     -4.7296878      0              59.089006      1964.0957    
    171000   291.41983     -6.0154094      0              54.970651      2039.2382    
    172000   301.86348     -5.1680831      0              58.003544      2110.8049    
    173000   307.16571     -3.94608        0              60.335156      2152.4794    
    174000   296.02176     -5.2541158      0              56.695002      2063.9808    
    175000   309.15152     -6.5949004      0              58.10191       2093.4296    
    176000   300.11509     -4.7480215      0              58.057716      2079.1907    
    177000   298.34478     -4.719945       0              57.715316      2128.6783    
    178000   299.81418     -5.7106956      0              57.03207       2054.659     
    179000   307.63207     -4.8404896      0              59.538342      2181.6249    
    180000   308.89994     -4.9935482      0              59.650614      2151.7819    
    181000   298.59047     -5.3531893      0              57.133487      2001.8241    
    182000   295.31418     -4.8481664      0              56.952873      2122.407     
    183000   292.59059     -5.4446652      0              55.786404      1886.7398    
    184000   301.78681     -5.7057328      0              57.449849      1902.1229    
    185000   292.77457     -3.7267308      0              57.54284       1983.0878    
    186000   286.82449     -6.84356        0              53.180824      1966.144     
    187000   302.42318     -4.1438835      0              59.144872      2152.1567    
    188000   295.52521     -5.7499545      0              56.095249      2150.6537    
    189000   288.91398     -2.8224432      0              57.639215      2178.9823    
    190000   291.14043     -5.1499416      0              55.777649      2054.5765    
    191000   288.70885     -4.1045327      0              56.314196      1980.4027    
    192000   300.46895     -3.7258867      0              59.153905      2101.4427    
    193000   299.47716     -5.4442973      0              57.227938      1997.8455    
    194000   297.64791     -5.7324797      0              56.556946      2056.2234    
    195000   305.77874     -4.616705       0              59.374276      1989.8263    
    196000   296.56158     -2.1482267      0              59.91386       2112.841     
    197000   307.64907     -5.4771835      0              58.905205      2144.2206    
    198000   298.61458     -5.7144053      0              56.777318      2089.7687    
    199000   311.24493     -4.619391       0              60.515512      2029.2871    
    200000   297.71771     -4.3334576      0              57.970575      2028.6876    
    201000   309.69021     -3.8844224      0              60.925121      2114.4782    
    202000   302.92353     -5.7981152      0              57.59535       2068.0684    
    203000   283.86273     -4.1061728      0              55.298399      2100.7252    
    204000   310.05871     -6.30323        0              58.583431      2019.4502    
    205000   300.65309     -5.6699201      0              57.248406      2035.1722    
    206000   303.63077     -1.9490126      0              61.592459      2151.4134    
    207000   297.5448      -3.6077603      0              58.660086      2209.9422    
    208000   302.8074      -3.8861011      0              59.483062      2125.1129    
    209000   293.78164     -5.4911388      0              55.989184      2127.1774    
    210000   290.80525     -7.2907826      0              53.566665      2010.3528    
    211000   291.0079      -6.1106071      0              54.789249      2001.2813    
    212000   295.24785     -5.9067937      0              55.880365      2052.9175    
    213000   303.79647     -3.6083506      0              59.967798      2072.9453    
    214000   296.19972     -3.1865703      0              58.799788      2218.4203    
    215000   313.01711     -3.7472059      0              61.758566      2127.1304    
    216000   298.72834     -3.9679667      0              58.547563      2098.1836    
    217000   294.50818     -5.0547335      0              56.577635      2027.2002    
    218000   303.24563     -4.027031       0              59.433842      2117.0853    
    219000   293.34209     -5.983619       0              55.404717      2066.7863    
    220000   311.25014     -4.4195671      0              60.716426      2047.3473    
    221000   304.24017     -4.1442139      0              59.524787      2084.8891    
    222000   309.81168     -4.020966       0              60.813999      2168.522     
    223000   303.43103     -2.9682908      0              60.53138       2101.5511    
    224000   303.13168     -4.8879632      0              58.549063      2048.1048    
    225000   305.75195     -5.7361592      0              58.249217      2152.0165    
    226000   301.58917     -4.3413493      0              58.772872      2071.8301    
    227000   295.787       -6.1387667      0              55.761222      2081.7743    
    228000   301.24496     -4.2658352      0              58.776354      2096.7617    
    229000   298.47847     -3.7561838      0              58.707056      2156.9703    
    230000   304.93271     -3.2401311      0              60.573801      2219.9858    
    231000   298.46656     -4.6684066      0              57.79234       1999.4878    
    232000   296.87624     -4.0202016      0              58.107735      2148.5447    
    233000   292.10446     -3.5433538      0              57.585982      2094.895     
    234000   296.54108     -3.7880206      0              58.269777      2068.5826    
    235000   290.85277     -3.5570094      0              57.310382      2166.6364    
    236000   301.35715     -4.8801554      0              58.185511      2085.673     
    237000   303.84634     -5.241945       0              58.34464       2164.4629    
    238000   299.53813     -5.7921507      0              56.892845      2028.2381    
    239000   306.33212     -2.8210693      0              61.285721      2232.9238    
    240000   292.31829     -4.5531361      0              56.620949      1979.9786    
    241000   297.77326     -3.5080078      0              58.80765       2127.5771    
    242000   302.64139     -4.7224954      0              58.611927      2040.8576    
    243000   295.22025     -2.451952       0              59.329433      2254.7111    
    244000   290.00324     -1.8559408      0              58.833668      2147.429     
    245000   306.54799     -5.0884039      0              59.063561      2091.0486    
    246000   294.462       -4.0877495      0              57.534954      2091.7025    
    247000   292.16934     -4.1257603      0              57.017152      1969.268     
    248000   297.04956     -5.3659441      0              56.798264      2024.838     
    249000   293.82989     -4.8504155      0              56.640005      2109.6336    
    250000   295.31544     -3.5839623      0              58.217343      2024.3459    
    251000   307.46359     -4.4896339      0              59.853941      2047.5975    
    252000   296.82564     -5.0509634      0              57.066384      2065.5334    
    253000   295.96218     -4.445851       0              57.490797      2093.1702    
    254000   306.90266     -5.7793099      0              58.446878      2081.2154    
    255000   301.62631     -5.6396318      0              57.482362      2066.1206    
    256000   302.92503     -3.6769496      0              59.71683       2115.9339    
    257000   317.74882     -5.2976735      0              61.198314      2074.5611    
    258000   299.92197     -3.9322499      0              58.833072      2013.7179    
    259000   301.41083     -5.4456292      0              57.63127       2045.9994    
    260000   303.62987     -4.1154346      0              59.425849      2127.015     
    261000   292.06879     -3.7889821      0              57.332888      2073.6705    
    262000   297.45705     -4.0137049      0              58.235778      2190.3952    
    263000   294.69982     -3.9249085      0              57.747563      2016.1286    
    264000   297.92965     -4.6738938      0              57.674491      2050.2941    
    265000   295.94617     -5.6406717      0              56.292627      1986.34      
    266000   303.76221     -5.3598278      0              58.209152      2168.1657    
    267000   298.30384     -6.1512345      0              56.27546       2016.7931    
    268000   304.85167     -4.591291       0              59.20568       2195.5466    
    269000   301.20836     -2.6877634      0              60.346764      2208.1314    
    270000   313.7313      -5.6418445      0              60.013386      2184.8662    
    271000   300.05211     -4.6296611      0              58.162897      2039.7459    
    272000   302.33405     -5.4606975      0              57.809407      2117.0515    
    273000   301.41047     -5.979753       0              57.097072      1994.4051    
    274000   292.26634     -4.474976       0              56.688236      2006.0591    
    275000   300.18058     -4.4879083      0              58.331534      2115.2833    
    276000   297.59912     -4.391033       0              57.888182      2014.8044    
    277000   301.87402     -5.1408875      0              58.032944      2048.011     
    278000   288.77416     -4.1016148      0              56.330782      2176.1616    
    279000   300.56346     -5.3254581      0              57.574111      2106.0591    
    280000   289.67163     -4.0797001      0              56.540512      2039.86      
    281000   294.56232     -4.8711299      0              56.772567      2184.5007    
    282000   296.0544      -4.475765       0              57.480182      2093.6517    
    283000   298.97391     -4.6522898      0              57.914631      2096.7199    
    284000   299.71092     -5.5476427      0              57.173514      2090.0843    
    285000   294.25768     -3.7232806      0              57.856663      2051.6614    
    286000   291.50892     -4.0395891      0              56.965117      2093.4653    
    287000   298.67732     -4.5798032      0              57.925049      2101.8562    
    288000   301.21147     -5.9523051      0              57.082875      1986.5387    
    289000   294.8141      -6.6566681      0              55.039719      2001.8456    
    290000   302.21535     -6.0546493      0              57.190614      2092.6969    
    291000   299.78197     -5.3791356      0              57.356889      2026.9014    
    292000   299.10078     -5.4728685      0              57.120603      2047.9628    
    293000   291.37588     -3.4802855      0              57.496579      2103.5296    
    294000   302.49329     -4.5023164      0              58.801113      2130.6218    
    295000   316.42227     -4.7274496      0              61.490928      2106.832     
    296000   292.35761     -4.4686085      0              56.713705      2163.9873    
    297000   302.26172     -6.2700413      0              56.984925      2136.1432    
    298000   303.81921     -5.20859        0              58.372317      2127.6691    
    299000   294.0507      -4.4326691      0              57.10396       2056.1175    
    300000   294.74182     -5.6125974      0              56.068663      1953.9185    
    301000   309.18245     -4.9392963      0              59.763987      2116.6217    
    302000   297.05205     -3.7066201      0              58.458108      2102.0173    
    303000   307.77754     -5.2557455      0              59.153529      2109.8014    
    304000   305.27029     -4.2463841      0              59.638193      2127.2042    
    305000   298.37434     -4.0971111      0              58.344335      2080.7847    
    306000   310.16121     -4.1805444      0              60.727567      2218.6213    
    307000   299.56504     -5.9277379      0              56.76289       2130.2715    
    308000   300.5326      -5.9563097      0              56.9368        2134.1925    
    309000   301.96038     -4.9653076      0              58.226598      2008.4686    
    310000   299.17016     -6.0812264      0              56.526764      2042.814     
    311000   295.9148      -5.1627215      0              56.764012      2107.8358    
    312000   296.08458     -5.9011402      0              56.061124      2032.8097    
    313000   289.53799     -5.2365632      0              55.355681      2056.2564    
    314000   298.80015     -3.9900065      0              58.54055       2091.3241    
    315000   301.92641     -4.2092938      0              58.975504      2189.0337    
    316000   287.71804     -3.4135838      0              56.797796      2116.2744    
    317000   297.9597      -5.4054159      0              56.949259      2034.015     
    318000   303.8803      -4.9647838      0              58.628907      2011.6837    
    319000   294.52508     -4.4835536      0              57.152351      2151.6668    
    320000   293.38457     -4.5556047      0              56.841622      2016.8895    
    321000   299.04629     -5.4368184      0              57.145249      2093.4821    
    322000   294.19275     -5.6226245      0              55.943732      1995.9969    
    323000   289.46647     -5.7702942      0              54.806984      1969.125     
    324000   288.15852     -5.6557387      0              54.647822      2036.1426    
    325000   300.85393     -4.4975266      0              58.46283       2006.3742    
    326000   302.40571     -6.839462       0              56.445638      2079.1623    
    327000   301.29809     -4.0062009      0              59.047105      2141.2004    
    328000   301.81521     -5.6791898      0              57.482335      2021.6896    
    329000   294.28948     -4.3928177      0              57.193782      2076.9782    
    330000   300.81157     -4.8671525      0              58.08434       1991.1302    
    331000   310.10854     -4.2183144      0              60.678774      2150.2268    
    332000   307.86747     -3.6438791      0              60.784216      2146.2886    
    333000   306.07829     -3.6399954      0              60.413673      2141.7495    
    334000   296.25608     -4.8852066      0              57.112947      2098.2221    
    335000   303.19121     -4.8203868      0              58.629098      1971.8302    
    336000   300.71859     -3.6582389      0              59.273795      2123.4214    
    337000   298.73845     -5.7625428      0              56.755102      2018.0381    
    338000   300.27058     -4.1283736      0              58.709904      2090.372     
    339000   302.65413     -4.0775839      0              59.259505      2100.3026    
    340000   303.92729     -5.0177843      0              58.58574       2153.9388    
    341000   307.88011     -5.2007755      0              59.229965      2085.8144    
    342000   287.18607     -4.0553678      0              56.044686      2143.5517    
    343000   297.32391     -6.940835       0              55.280787      1956.2452    
    344000   308.00059     -6.2762564      0              58.179696      2115.5315    
    345000   302.89486     -4.300142       0              59.087324      2079.2799    
    346000   298.91854     -3.8411264      0              58.714207      2098.0617    
    347000   309.53647     -4.7489046      0              60.028466      2117.5985    
    348000   296.10237     -4.4052384      0              57.560749      2085.8275    
    349000   291.74855     -5.8820194      0              55.172835      1994.8737    
    350000   305.12373     -4.0605142      0              59.793392      2029.05      
    351000   309.14915     -5.1061443      0              59.590171      2059.7575    
    352000   302.54674     -3.9700233      0              59.344591      2097.3696    
    353000   294.66283     -3.7405802      0              57.924151      2248.5616    
    354000   300.8729      -4.3397239      0              58.624602      2150.8134    
    355000   300.26241     -2.8422455      0              59.994323      2138.3565    
    356000   304.45497     -4.3999571      0              59.313997      2068.8052    
    357000   302.03246     -5.5778487      0              57.62914       1951.8962    
    358000   301.82112     -2.9309501      0              60.231812      2129.7302    
    359000   296.30307     -5.1045132      0              56.903475      2029.6968    
    360000   292.14937     -4.3204168      0              56.818318      2178.4386    
    361000   310.08495     -5.6347755      0              59.257376      2133.8376    
    362000   310.64768     -3.9813741      0              61.028542      2038.5295    
    363000   290.27309     -4.8302445      0              55.915836      2086.027     
    364000   304.7496      -4.1087881      0              59.666823      2180.5026    
    365000   298.02607     -5.8983277      0              56.470237      2007.8105    
    366000   303.76403     -4.5605626      0              59.008798      2133.2536    
    367000   301.64072     -5.3753736      0              57.749636      2050.3069    
    368000   300.00553     -5.1415839      0              57.641227      2129.1564    
    369000   298.48191     -3.3216769      0              59.142281      2214.4606    
    370000   296.90363     -4.1859995      0              57.947669      2181.1385    
    371000   291.33157     -5.1621659      0              55.805425      1995.4135    
    372000   305.81954     -4.029349       0              59.970172      2084.3128    
    373000   290.35858     -5.0836353      0              55.680336      2024.2443    
    374000   298.50687     -5.9944735      0              56.474709      2114.5794    
    375000   301.27172     -6.3691903      0              56.678598      2093.5185    
    376000   306.2345      -6.0121939      0              58.074167      2103.1126    
    377000   293.53699     -6.8519913      0              54.577133      1990.1122    
    378000   304.7711      -5.7672484      0              58.012863      2060.591     
    379000   297.29816     -4.8652073      0              57.351025      2033.181     
    380000   305.93215     -2.1388021      0              61.884283      2131.6242    
    381000   304.91277     -4.6569747      0              59.152783      2109.8081    
    382000   298.28062     -4.1688779      0              58.252956      2115.1214    
    383000   299.13177     -3.5199566      0              59.079999      2113.8676    
    384000   299.80508     -4.7176844      0              58.023177      2123.402     
    385000   297.83303     -3.7639056      0              58.56426       2180.8755    
    386000   295.86407     -4.9786849      0              56.937433      2002.8762    
    387000   302.36668     -5.5744834      0              57.70245       2071.0037    
    388000   295.8765      -5.1513152      0              56.767403      2055.1943    
    389000   296.48099     -5.6882822      0              56.35694       2056.7604    
    390000   287.56819     -5.5950743      0              54.584946      2071.8606    
    391000   300.57111     -4.973857       0              57.927312      2115.0579    
    392000   307.49777     -4.1329873      0              60.21774       2052.7999    
    393000   297.7376      -6.7257505      0              55.582444      1960.6714    
    394000   296.54921     -3.6331813      0              58.426317      2092.7961    
    395000   295.24896     -3.3535932      0              58.433798      2089.6922    
    396000   300.25309     -4.1594039      0              58.675214      2044.905     
    397000   294.69178     -4.4094523      0              57.261338      2141.9257    
    398000   306.32532     -4.7196207      0              59.385745      2194.5685    
    399000   299.01205     -5.3383349      0              57.236568      2024.3634    
    400000   297.60249     -3.5811866      0              58.698734      2093.4352    
    401000   299.80935     -4.2313713      0              58.510384      1957.713     
    402000   291.88489     -4.0913044      0              56.992082      2113.9404    
    403000   300.55519     -5.2843869      0              57.613451      2138.894     
    404000   299.74481     -4.0722278      0              58.656021      2074.4295    
    405000   309.41022     -4.0645181      0              60.686432      2128.9731    
    406000   312.69045     -6.0456309      0              59.39178       2138.9572    
    407000   295.14562     -4.0582698      0              57.707495      2095.4178    
    408000   295.52259     -5.1772665      0              56.667388      2063.1136    
    409000   304.18214     -4.5976085      0              59.05925       2185.6889    
    410000   298.13198     -4.1751427      0              58.215586      2132.2868    
    411000   306.3814      -5.3804517      0              58.73665       2077.6152    
    412000   293.85731     -4.1601579      0              57.336         2048.8661    
    413000   306.17274     -4.3222193      0              59.751216      2096.9111    
    414000   299.45804     -4.7430268      0              57.925208      2083.0737    
    415000   300.00277     -4.1713688      0              58.610863      2238.5792    
    416000   302.2593      -5.4752704      0              57.77919       1940.3003    
    417000   299.96675     -3.5594298      0              59.215265      2175.4974    
    418000   292.81766     -3.234794       0              58.043795      2057.8038    
    419000   292.93126     -3.2455149      0              58.056847      2175.778     
    420000   295.41981     -3.8855323      0              57.937615      2013.7003    
    421000   307.53765     -4.3793686      0              59.979704      2062.8592    
    422000   296.93657     -5.9017462      0              56.238817      2125.6108    
    423000   300.44787     -4.49801        0              58.377369      2066.309     
    424000   299.47917     -4.2939649      0              58.378693      2104.213     
    425000   294.38314     -1.7710673      0              59.835132      2210.8607    
    426000   305.93332     -3.4369652      0              60.586367      2160.7458    
    427000   292.22695     -3.2723956      0              57.882574      2134.5445    
    428000   304.55552     -4.0257087      0              59.709287      2155.6132    
    429000   304.82553     -3.0033211      0              60.788181      2134.052     
    430000   309.55486     -3.4439856      0              61.337234      2154.1821    
    431000   303.57805     -5.9571101      0              57.57333       2091.2853    
    432000   300.89165     -4.3083777      0              58.659873      2087.0303    
    433000   299.82197     -4.3924803      0              58.351915      2031.3798    
    434000   299.94008     -4.151154       0              58.617958      2028.0236    
    435000   288.65528     -3.9406307      0              56.466887      2111.6857    
    436000   304.52716     -4.7172686      0              59.011792      2044.0595    
    437000   299.20384     -5.30997        0              57.305069      2015.095     
    438000   298.49087     -3.9255888      0              58.540246      2048.5102    
    439000   297.94287     -4.7732613      0              57.577891      2030.9732    
    440000   294.82695     -4.1751279      0              57.52395       2115.9941    
    441000   293.12897     -4.1192348      0              57.224502      2159.7695    
    442000   300.32735     -4.0471798      0              58.802979      2082.9349    
    443000   306.73952     -5.8688117      0              58.323236      2011.5125    
    444000   301.65484     -7.0231757      0              56.104789      1998.5963    
    445000   300.24358     -4.8451431      0              57.987485      2068.9718    
    446000   301.54525     -5.0731684      0              58.031862      2157.5529    
    447000   306.12702     -4.250392       0              59.813474      2172.9314    
    448000   301.66464     -4.2458365      0              58.884179      2122.3297    
    449000   301.29293     -5.4815736      0              57.570654      2174.1872    
    450000   308.46413     -6.1670826      0              58.385876      2023.0249    
    451000   304.73861     -5.4451912      0              58.328121      2096.0968    
    452000   290.39854     -5.2261758      0              55.546158      2113.3791    
    453000   310.30923     -5.2689566      0              59.67013       2013.2755    
    454000   295.0424      -4.6336231      0              57.110542      2112.7389    
    455000   290.76237     -5.425886       0              55.422588      2037.0451    
    456000   302.76043     -3.8433108      0              59.516022      2028.7589    
    457000   299.64022     -2.7253484      0              59.981012      2195.7216    
    458000   296.67425     -3.8947776      0              58.190889      2192.4234    
    459000   292.20062     -4.7711118      0              56.378348      2138.0132    
    460000   302.38874     -3.9066568      0              59.374892      2051.5185    
    461000   310.16484     -4.7944868      0              60.114383      2111.0293    
    462000   290.87754     -4.3478708      0              56.524705      2120.8803    
    463000   284.07222     -6.7788782      0              52.669533      1957.9207    
    464000   302.65651     -5.6203874      0              57.7172        2037.8661    
    465000   300.39343     -4.4623751      0              58.401611      2079.4023    
    466000   289.6855      -4.498391       0              56.124724      2032.0574    
    467000   306.57986     -4.1220178      0              60.036617      2147.3687    
    468000   289.34177     -4.5571574      0              55.994025      2033.1745    
    469000   293.5132      -4.0670368      0              57.357109      2067.8834    
    470000   295.66688     -5.0466925      0              56.828159      2012.7547    
    471000   306.56388     -4.4774714      0              59.677818      2114.2907    
    472000   297.77517     -4.6652172      0              57.650841      1986.1631    
    473000   301.16404     -5.4744478      0              57.550806      2066.3497    
    474000   296.64125     -4.2034914      0              57.875267      2045.0376    
    475000   305.34423     -4.1161122      0              59.783939      2224.6351    
    476000   304.63677     -5.193608       0              58.558392      2152.6991    
    477000   305.15558     -4.7182749      0              59.142296      2129.8066    
    478000   296.53542     -4.9342248      0              57.122387      2162.8251    
    479000   304.52991     -4.415664       0              59.313972      2115.8515    
    480000   300.79044     -5.7568391      0              57.190231      2046.6104    
    481000   288.14339     -5.7635343      0              54.536859      2008.6771    
    482000   303.58946     -4.2433947      0              59.289431      2034.7067    
    483000   305.71048     -4.376588       0              59.600109      2000.7006    
    484000   303.48143     -5.1828607      0              58.327359      2134.0919    
    485000   302.89809     -6.6127505      0              56.775391      2094.0157    
    486000   304.81972     -4.9720566      0              58.81823       2077.6795    
    487000   299.99853     -5.7209185      0              57.060427      1991.1792    
    488000   300.63881     -3.7545241      0              59.160813      2075.5596    
    489000   309.35326     -5.349735       0              59.389295      2072.3707    
    490000   291.33507     -6.2586283      0              54.709695      2011.5989    
    491000   290.09542     -4.3769912      0              56.331908      2095.9972    
    492000   296.4142      -4.7882006      0              57.243045      2053.2202    
    493000   311.58566     -4.8133184      0              60.392891      2023.1517    
    494000   306.06627     -4.2960105      0              59.755144      2096.0522    
    495000   298.14116     -4.6465006      0              57.746149      2094.6404    
    496000   310.39829     -4.3387994      0              60.618926      2196.2578    
    497000   306.41555     -3.7094292      0              60.41482       2089.9106    
    498000   303.7169      -4.9819141      0              58.577582      2084.2768    
    499000   302.95902     -3.6183737      0              59.782518      2244.7205    
    500000   301.2923      -3.5069681      0              59.545126      2141.2297    
    501000   297.57001     -4.2448675      0              58.028255      2182.1713    
    502000   307.0563      -3.9514757      0              60.306864      2121.3534    
    503000   299.04567     -5.0680711      0              57.513867      1978.1303    
    504000   299.55215     -3.7476299      0              58.940299      2069.6117    
    505000   303.93378     -5.6399161      0              57.964966      1993.2736    
    506000   303.38159     -4.9299969      0              58.559327      2054.657     
    507000   310.41447     -5.3630952      0              59.598015      2034.0251    
    508000   293.87947     -6.0260375      0              55.474758      2073.3728    
    509000   301.45172     -3.6249393      0              59.460518      2075.0087    
    510000   304.55214     -5.6633136      0              58.070975      2042.285     
    511000   306.57945     -4.3623826      0              59.796165      1988.7443    
    512000   307.64999     -4.0719556      0              60.310626      2127.4034    
    513000   305.22321     -5.2819576      0              58.592767      2038.5797    
    514000   302.43028     -3.8467277      0              59.443514      2118.6703    
    515000   303.84902     -4.2098063      0              59.377338      2078.8975    
    516000   297.81804     -4.0870565      0              58.237973      2099.208     
    517000   305.01812     -4.5653334      0              59.266471      2083.1283    
    518000   314.11112     -3.7119356      0              62.022782      2170.5077    
    519000   288.89517     -4.6522917      0              55.805429      2191.6368    
    520000   292.3223      -5.2699461      0              55.904978      2090.72      
    521000   294.37034     -4.0775217      0              57.525999      2126.1431    
    522000   304.53133     -5.1145273      0              58.615405      2125.045     
    523000   301.92567     -3.4915342      0              59.693108      2170.3037    
    524000   307.5074      -4.687564       0              59.665178      2192.4193    
    525000   310.35177     -2.9720772      0              61.975913      2217.152     
    526000   297.86864     -3.5499182      0              58.7857        2143.4262    
    527000   301.08171     -3.8149336      0              59.19309       2065.696     
    528000   299.23603     -3.4438165      0              59.177958      2166.0902    
    529000   304.38296     -3.9994547      0              59.699429      2112.8744    
    530000   293.55305     -3.5559594      0              57.876526      2051.1317    
    531000   297.48669     -4.4032001      0              57.852486      1999.4418    
    532000   298.42782     -3.8325847      0              58.620054      2052.984     
    533000   297.80171     -4.2779681      0              58.043643      2021.5142    
    534000   314.88869     -6.2648722      0              59.632568      2041.4473    
    535000   294.8343      -5.8277284      0              55.872888      1994.3879    
    536000   304.11679     -4.9658106      0              58.677372      2185.9002    
    537000   291.83126     -5.1462384      0              55.925924      2090.2471    
    538000   297.76944     -3.6311302      0              58.683729      2176.4021    
    539000   290.71875     -3.8868507      0              56.952494      2077.6306    
    540000   299.01579     -6.6642073      0              55.911477      1957.5136    
    541000   303.05531     -5.0721088      0              58.348936      2022.0329    
    542000   296.20326     -3.8362433      0              58.150858      2127.3422    
    543000   311.24226     -5.8202238      0              59.314121      2119.8981    
    544000   304.52589     -3.6725584      0              60.056236      2086.0346    
    545000   308.39708     -3.8631087      0              60.675819      2115.1615    
    546000   301.86451     -4.9980949      0              58.173747      2019.7401    
    547000   294.8789      -4.4061442      0              57.303804      2101.2817    
    548000   303.60865     -4.549207       0              58.987635      2147.1896    
    549000   297.53784     -5.2476671      0              57.018724      2040.2887    
    550000   306.1048      -4.2091738      0              59.850043      2055.1144    
    551000   308.52665     -5.3349646      0              59.231079      2060.1396    
    552000   305.2381      -5.3374837      0              58.540357      2042.8248    
    553000   305.41656     -4.3121269      0              59.603061      2071.9588    
    554000   306.04719     -4.6016678      0              59.445492      2154.3076    
    555000   303.10597     -5.4361932      0              57.995452      2149.8268    
    556000   289.97369     -4.9058021      0              55.777623      2103.6461    
    557000   302.54597     -5.331652       0              57.982801      2091.4565    
    558000   293.84019     -4.533204       0              56.959372      2061.6775    
    559000   294.38988     -4.847145       0              56.760466      2022.5326    
    560000   300.74539     -3.6460916      0              59.29155       2122.1999    
    561000   300.50443     -4.2506627      0              58.636553      2097.4974    
    562000   300.78726     -6.0389999      0              56.907405      2058.9086    
    563000   308.65429     -4.3421457      0              60.250608      2146.6237    
    564000   308.36931     -2.9917157      0              61.5414        2126.1064    
    565000   305.88631     -5.2707369      0              58.742756      2117.5539    
    566000   291.00578     -5.1979459      0              55.701466      2119.9738    
    567000   298.75836     -3.9189417      0              58.60287       2117.4773    
    568000   301.42903     -5.4411786      0              57.63953       2038.3974    
    569000   296.21636     -4.0448703      0              57.944972      2237.1279    
    570000   289.10845     -2.8381274      0              57.664227      2040.0016    
    571000   299.5127      -3.9422523      0              58.737421      2221.3297    
    572000   297.54968     -3.4265986      0              58.842269      2139.1326    
    573000   293.57836     -4.6848631      0              56.752919      2091.8344    
    574000   300.63938     -5.4575845      0              57.457872      2169.2077    
    575000   303.5344      -4.8280784      0              58.693226      2072.1486    
    576000   288.60502     -2.3551134      0              58.041886      2136.4471    
    577000   303.8487      -4.2990886      0              59.287989      2031.632     
    578000   301.11115     -5.0116805      0              58.002505      2070.9458    
    579000   289.95361     -3.5645928      0              57.11463       2108.7747    
    580000   299.19635     -5.204179       0              57.409292      2048.1403    
    581000   296.81524     -4.9334318      0              57.18174       2028.2538    
    582000   307.18071     -5.0914998      0              59.192875      2059.1919    
    583000   297.04471     -3.5541264      0              58.609066      2178.987     
    584000   307.79279     -4.8774428      0              59.535024      2188.3998    
    585000   306.40817     -5.3616816      0              58.761024      2101.4991    
    586000   299.59938     -5.3357003      0              57.362114      2107.8108    
    587000   301.11723     -4.5173703      0              58.498088      2109.2445    
    588000   304.63493     -3.1250956      0              60.626518      2194.5672    
    589000   306.22337     -4.3971521      0              59.686879      2158.381     
    590000   299.87671     -4.2560814      0              58.49977       2103.2589    
    591000   304.83623     -5.5504879      0              58.243254      2078.5093    
    592000   304.91533     -5.1386284      0              58.671666      2091.5762    
    593000   314.70999     -4.8406262      0              61.019417      2050.3451    
    594000   300.33639     -2.6341275      0              60.217921      2124.5984    
    595000   303.36943     -4.7243971      0              58.762383      2112.4889    
    596000   294.8668      -5.1392224      0              56.568194      2046.8219    
    597000   292.96484     -4.9378883      0              56.371501      2124.7467    
    598000   298.86258     -2.9748741      0              59.568749      2088.1982    
    599000   300.81127     -3.7207739      0              59.230654      2108.2175    
    600000   300.77171     -4.2459981      0              58.697152      2184.632     
    601000   305.13344     -3.7185997      0              60.137339      2195.8134    
    602000   291.43115     -4.3081364      0              56.680294      2130.5905    
    603000   300.63348     -3.2976646      0              59.616557      2087.5169    
    604000   298.82894     -6.5797964      0              55.956786      2062.8594    
    605000   301.61719     -4.6169114      0              58.503174      2059.7974    
    606000   288.60978     -3.8374595      0              56.560537      2086.2912    
    607000   305.60853     -5.0265501      0              58.928812      2036.508     
    608000   300.29581     -4.0013324      0              58.842225      2074.0558    
    609000   309.74071     -4.4493013      0              60.370812      2068.3223    
    610000   292.88773     -2.5218061      0              58.771445      2231.4462    
    611000   305.33588     -4.1078812      0              59.790422      2112.1835    
    612000   292.02472     -4.3561272      0              56.756522      2036.7802    
    613000   297.00069     -4.049373       0              58.104608      2089.0299    
    614000   293.62517     -5.1605813      0              56.286997      1863.4874    
    615000   293.68711     -3.1238751      0              58.336665      2171.6865    
    616000   290.83593     -4.9187214      0              55.945147      2049.4296    
    617000   303.0277      -4.0456855      0              59.369581      2110.7416    
    618000   300.42241     -5.7935927      0              57.076458      2031.8119    
    619000   303.85512     -4.7556838      0              58.832738      2071.978     
    620000   302.32853     -4.8699971      0              58.398952      2088.0491    
    621000   308.56349     -4.6318241      0              59.941929      2209.8765    
    622000   305.25724     -2.8070515      0              61.074795      2192.2776    
    623000   299.83739     -3.488483       0              59.259141      2165.32      
    624000   306.47963     -5.4618498      0              58.675808      2123.4626    
    625000   294.31408     -4.3376558      0              57.254092      2186.2794    
    626000   293.32966     -4.829406       0              56.556329      2103.7337    
    627000   308.66406     -4.6934274      0              59.901372      2095.8047    
    628000   293.72038     -3.3225137      0              58.14499       2099.8969    
    629000   301.92104     -3.5014487      0              59.682223      2189.3771    
    630000   293.2858      -5.4767032      0              55.899853      2103.4476    
    631000   300.76057     -2.8417016      0              60.099118      2122.1124    
    632000   314.32347     -4.2900258      0              61.48913       2174.2331    
    633000   308.52595     -4.4847813      0              60.081114      2015.1561    
    634000   300.87852     -6.5567306      0              56.408772      2092.2254    
    635000   288.69301     -4.1253729      0              56.290042      2058.0591    
    636000   291.49307     -3.4605724      0              57.540817      2097.716     
    637000   292.48246     -3.853721       0              57.354719      1982.189     
    638000   299.08717     -4.3146022      0              58.276019      2113.8227    
    639000   292.62365     -3.9880937      0              57.249895      2010.0701    
    640000   301.35501     -4.5532666      0              58.511951      2079.1343    
    641000   302.87398     -3.6853064      0              59.69779       1994.8827    
    642000   298.73993     -4.7425707      0              57.775384      2007.1129    
    643000   300.80112     -4.9468835      0              58.002421      2129.1453    
    644000   305.84257     -5.0999076      0              58.904432      2145.4845    
    645000   299.0658      -4.4110238      0              58.175127      2026.847     
    646000   304.43823     -3.816891       0              59.89356       2156.0426    
    647000   307.17764     -3.8114985      0              60.472235      2121.3725    
    648000   296.10035     -6.2947031      0              55.670861      2041.4959    
    649000   297.1446      -4.9110979      0              57.273         2021.4069    
    650000   296.07821     -5.7595471      0              56.201383      2006.079     
    651000   301.00043     -5.5298772      0              57.461138      2094.695     
    652000   302.92376     -4.3084593      0              59.085054      2061.5259    
    653000   299.05009     -4.9411408      0              57.641722      2113.8911    
    654000   301.72972     -3.8830823      0              59.260553      2078.2674    
    655000   291.02161     -3.046458       0              57.856267      2074.1979    
    656000   300.24995     -4.2085227      0              58.625438      2064.2166    
    657000   302.33833     -4.4626952      0              58.808305      2148.6136    
    658000   303.96998     -5.0470119      0              58.565448      2041.613     
    659000   304.92089     -6.9476227      0              56.863836      2001.1975    
    660000   295.18086     -3.2384293      0              58.534712      2187.224     
    661000   298.20296     -5.4276851      0              56.977896      2125.1443    
    662000   296.07828     -3.8924509      0              58.068495      2084.6513    
    663000   299.5352      -5.742552       0              56.94183       2033.6212    
    664000   300.74742     -5.9063292      0              57.031738      1929.6116    
    665000   289.84945     -5.026234       0              55.631191      2086.2935    
    666000   298.62935     -6.0905         0              56.404313      2045.4555    
    667000   318.67316     -3.7477218      0              62.941703      2105.0431    
    668000   301.99016     -4.6127635      0              58.585374      2131.0042    
    669000   304.01043     -3.6118276      0              60.009097      2254.3467    
    670000   301.35625     -5.4405168      0              57.624961      2046.1416    
    671000   303.42227     -5.6761713      0              57.821666      2064.9545    
    672000   303.68731     -4.7817561      0              58.771549      2124.3503    
    673000   291.57464     -5.3775894      0              55.640869      2052.5415    
    674000   296.46963     -5.4757866      0              56.567057      2045.5582    
    675000   294.78467     -2.5693469      0              59.120881      2132.6596    
    676000   304.23893     -5.4430602      0              58.225682      2026.4039    
    677000   297.45506     -4.3204503      0              57.928617      2073.0614    
    678000   305.47974     -4.2643191      0              59.66409       2142.1955    
    679000   292.5411      -4.3141834      0              56.906529      1983.9357    
    680000   305.61604     -3.0957562      0              60.861178      2059.3474    
    681000   293.50523     -3.5541446      0              57.868334      2249.9354    
    682000   304.68186     -4.1729576      0              59.588478      2083.2777    
    683000   305.58955     -2.9533239      0              60.998067      2260.8942    
    684000   299.68777     -4.7717065      0              57.944604      2098.9764    
    685000   303.16916     -3.6995398      0              59.745329      2147.5638    
    686000   303.43884     -6.3182856      0              57.183021      2033.9346    
    687000   289.00862     -6.5070489      0              53.974414      1920.8342    
    688000   305.85474     -2.8785153      0              61.128372      2190.112     
    689000   295.09684     -4.1020604      0              57.653497      2111.2703    
    690000   298.12978     -4.495019       0              57.895248      2136.9898    
    691000   294.2227      -4.7361226      0              56.836501      2020.9558    
    692000   300.41538     -3.388263       0              59.480317      2142.2047    
    693000   309.79942     -4.2914574      0              60.540942      2199.0135    
    694000   293.43041     -4.2168319      0              57.189989      2079.1826    
    695000   296.54835     -4.7136755      0              57.345642      2130.5697    
    696000   305.48476     -4.2848812      0              59.644579      2180.7813    
    697000   306.0983      -3.9032866      0              60.154571      2176.569     
    698000   300.36441     -3.8831336      0              58.97478       2119.3409    
    699000   291.99138     -5.0240738      0              56.081597      1942.2774    
    700000   295.1194      -5.3390156      0              56.421264      2008.5207    
    701000   304.4768      -5.8570363      0              57.861486      1997.1728    
    702000   303.90659     -4.8887927      0              58.710399      2095.8352    
    703000   296.83141     -4.0008739      0              58.117681      2126.9866    
    704000   291.05401     -4.7724948      0              56.137011      2131.2735    
    705000   306.22345     -5.2372709      0              58.846776      2073.816     
    706000   292.40873     -4.8325498      0              56.360461      2078.5151    
    707000   298.37185     -5.4908141      0              56.950112      1971.942     
    708000   295.27279     -4.8318249      0              56.960554      1975.6762    
    709000   309.33017     -4.5674647      0              60.166733      2061.4347    
    710000   303.17481     -4.7264107      0              58.719642      2091.5517    
    711000   295.37405     -4.8821563      0              56.931413      2077.8312    
    712000   294.72617     -4.863535       0              56.814451      2063.6533    
    713000   290.93193     -4.0985145      0              56.785444      2116.3955    
    714000   293.94827     -4.6173103      0              56.897883      2089.7396    
    715000   306.23967     -3.2174427      0              60.869999      2107.7384    
    716000   310.15189     -3.0955616      0              61.810599      2272.5782    
    717000   290.89639     -5.1125885      0              55.763933      2005.1762    
    718000   297.95308     -5.2145671      0              57.138723      2128.4371    
    719000   299.62039     -5.4322349      0              57.269976      2068.9807    
    720000   288.81525     -5.4070885      0              55.033907      2102.906     
    721000   298.89513     -4.923385       0              57.62705       2116.888     
    722000   294.06094     -3.7949197      0              57.743852      2130.6264    
    723000   297.69385     -3.284032       0              59.015007      2100.7388    
    724000   309.19458     -5.6927917      0              59.013032      2007.7028    
    725000   295.32226     -5.4394764      0              56.363254      2060.5603    
    726000   311.62519     -6.273739       0              58.940741      2017.0009    
    727000   309.76762     -4.8380023      0              59.987741      2055.0625    
    728000   293.78709     -4.6609407      0              56.820523      2112.4137    
    729000   297.01164     -4.184454       0              57.971817      2154.1786    
    730000   303.59083     -6.45664        0              57.076473      2073.1749    
    731000   295.05993     -4.3082052      0              57.439628      2054.0283    
    732000   300.44527     -5.349285       0              57.525551      2168.3441    
    733000   293.84059     -3.8351819      0              57.657476      2084.5603    
    734000   294.65972     -4.1579726      0              57.506108      2178.6168    
    735000   295.67875     -4.0921859      0              57.785149      2050.9887    
    736000   307.54612     -5.7143375      0              58.646509      2065.0116    
    737000   302.73501     -5.0480292      0              58.305985      1984.0353    
    738000   296.675       -4.3334327      0              57.75239       2090.3685    
    739000   288.38959     -4.8895431      0              55.462374      2084.991     
    740000   296.95866     -4.1002504      0              58.044933      2105.4463    
    741000   303.59723     -6.1949943      0              57.339458      2025.9525    
    742000   308.93069     -4.1615357      0              60.489061      2223.6593    
    743000   301.13999     -5.2424932      0              57.777727      2109.5285    
    744000   297.51922     -5.1356472      0              57.126847      2029.2935    
    745000   298.80301     -5.4007818      0              57.130374      2101.7672    
    746000   301.41639     -5.4892184      0              57.588845      2027.3366    
    747000   296.01874     -4.1189023      0              57.829584      2011.0674    
    748000   300.0077      -5.0775817      0              57.705682      2178.72      
    749000   303.76412     -5.3721473      0              58.197231      2098.7533    
    750000   294.66647     -4.4901956      0              57.175298      2082.5972    
    751000   303.38462     -4.0778877      0              59.412072      2097.9977    
    752000   295.00097     -2.2852795      0              59.450215      2151.2561    
    753000   295.29781     -3.7523139      0              58.045302      2202.206     
    754000   292.13687     -3.7444697      0              57.391649      2122.0824    
    755000   294.13288     -4.2833935      0              57.270434      2117.4058    
    756000   300.28975     -5.6268136      0              57.215476      2067.3601    
    757000   295.37428     -3.2984833      0              58.515134      2085.6596    
    758000   304.6633      -4.7447957      0              59.012755      2039.0274    
    759000   306.90369     -4.4377156      0              59.788686      2117.0545    
    760000   285.66721     -4.2542865      0              55.527911      2000.9978    
    761000   292.95965     -6.4637641      0              54.844539      2019.2132    
    762000   294.30079     -3.5927392      0              57.996228      2087.0745    
    763000   302.81753     -5.0886922      0              58.282591      1989.2057    
    764000   302.55191     -4.8358892      0              58.479807      2094.0437    
    765000   304.88869     -6.2395758      0              57.565143      2045.9462    
    766000   299.41715     -3.0801539      0              59.579525      2151.0653    
    767000   302.5842      -4.2236841      0              59.098769      2052.2594    
    768000   310.56534     -3.8219418      0              61.170743      2162.0288    
    769000   300.45412     -4.2897833      0              58.586904      2097.3477    
    770000   294.95055     -6.5952149      0              55.129729      2050.9768    
    771000   292.46472     -5.4400035      0              55.764724      2123.0456    
    772000   293.1444      -4.7739699      0              56.572997      2089.7298    
    773000   299.56951     -3.2251781      0              59.466385      2090.6395    
    774000   297.95099     -3.028699       0              59.324153      2213.4078    
    775000   291.01996     -2.4377158      0              58.464665      2179.4073    
    776000   300.93197     -4.9521635      0              58.024525      2058.5172    
    777000   302.80648     -5.4064565      0              57.962514      2113.6815    
    778000   306.83216     -4.2875358      0              59.923897      2039.8802    
    779000   306.19894     -4.5153509      0              59.563568      2071.2317    
    780000   288.50271     -4.3568662      0              56.018724      1935.3121    
    781000   294.75735     -3.2963616      0              58.388151      2199.5057    
    782000   308.40557     -3.8233286      0              60.717377      2096.6453    
    783000   298.85551     -4.1900982      0              58.352044      2061.4221    
    784000   298.61032     -4.7007759      0              57.790056      2007.4241    
    785000   308.73187     -6.0328299      0              58.576159      2072.4849    
    786000   306.14275     -5.0152739      0              59.051884      2161.7337    
    787000   295.20014     -4.8945146      0              56.88266       2064.9829    
    788000   296.53525     -3.9326845      0              58.123893      2090.7367    
    789000   298.84768     -4.1437391      0              58.396766      2107.6441    
    790000   303.9783      -4.1112813      0              59.502918      2188.2687    
    791000   297.42358     -5.971778       0              56.270701      2063.7232    
    792000   297.87014     -5.481343       0              56.854589      2107.5073    
    793000   304.75556     -3.1315259      0              60.645334      2111.6366    
    794000   301.42676     -3.8651456      0              59.215088      2071.2262    
    795000   301.0127      -3.6628045      0              59.330777      2090.5518    
    796000   296.18146     -4.3886217      0              57.593917      2062.9773    
    797000   300.74445     -3.9914391      0              58.946005      2147.1111    
    798000   299.31324     -4.0257708      0              58.612162      2137.4563    
    799000   305.03691     -4.9648547      0              58.870883      2085.6092    
    800000   306.62039     -5.9154942      0              58.251622      1970.4867    
    801000   303.78364     -4.5680437      0              59.005419      2098.411     
    802000   296.91787     -5.0307318      0              57.105918      2067.8545    
    803000   306.10665     -4.3628339      0              59.69677       2086.0886    
    804000   313.55686     -5.0719276      0              60.546798      2118.2093    
    805000   298.69764     -4.9026259      0              57.606479      2105.9994    
    806000   304.84721     -4.778776       0              59.017262      2109.0157    
    807000   304.97953     -4.2864592      0              59.537271      2083.922     
    808000   309.63035     -4.4796976      0              60.317319      2044.8979    
    809000   300.20223     -5.6296853      0              57.194289      2086.3017    
    810000   292.49624     -2.930877       0              58.280447      2228.1966    
    811000   302.56871     -4.9333993      0              58.385812      1971.3139    
    812000   291.63418     -4.3466092      0              56.68431       2091.1987    
    813000   295.26934     -6.4299618      0              55.361694      2013.7029    
    814000   303.58118     -3.7069891      0              59.824104      2035.2175    
    815000   299.80776     -3.8858321      0              58.855589      2129.3929    
    816000   304.24939     -3.2055419      0              60.465389      2163.4864    
    817000   294.27543     -5.2621563      0              56.321503      2107.3475    
    818000   303.15214     -3.7898903      0              59.651418      2121.1827    
    819000   295.41905     -4.0319999      0              57.790988      2115.3135    
    820000   297.84765     -4.1419401      0              58.189285      2126.0737    
    821000   303.40929     -5.672074       0              57.823048      2039.1296    
    822000   287.69846     -4.1426254      0              56.064656      2127.5151    
    823000   298.88964     -3.7703472      0              58.778937      2095.8704    
    824000   296.69954     -3.6720538      0              58.418904      2190.2937    
    825000   297.2075      -6.6371378      0              55.560122      2096.3895    
    826000   297.97797     -4.2215052      0              58.136993      2138.2933    
    827000   303.89322     -6.4685546      0              57.127841      2108.0323    
    828000   309.85094     -4.9866944      0              59.856485      2095.8307    
    829000   292.27933     -4.4759666      0              56.689964      2117.7852    
    830000   307.30404     -4.8035517      0              59.506633      2048.3353    
    831000   299.90928     -3.7206035      0              59.042064      1979.692     
    832000   309.57783     -4.3225077      0              60.463518      2220.888     
    833000   293.73459     -4.7436979      0              56.726779      2034.0175    
    834000   301.53232     -3.5832145      0              59.51911       2114.1738    
    835000   301.47411     -4.1326988      0              58.957443      2066.659     
    836000   293.8821      -6.1671         0              55.334246      2119.1703    
    837000   302.57419     -5.1670004      0              58.153359      2095.568     
    838000   300.26139     -4.1471063      0              58.689247      2237.7092    
    839000   302.07546     -4.3230505      0              58.892939      2106.2071    
    840000   297.50597     -5.7053821      0              56.554339      2100.2028    
    841000   298.72484     -3.490709       0              59.024087      2096.8623    
    842000   301.59116     -4.4658475      0              58.64879       2114.2546    
    843000   293.30779     -5.5187587      0              55.8624        1949.0062    
    844000   313.99126     -5.3974109      0              60.312223      2113.0707    
    845000   302.9013      -4.090134       0              59.298679      2118.5886    
    846000   298.76786     -3.7522479      0              58.771552      2135.3775    
[...]
   1814000   291.50227     -3.9956183      0              57.007696      1939.4799    
   1815000   303.16522     -4.1766876      0              59.267357      2105.7088    
   1816000   300.05597     -3.4245766      0              59.368788      2136.7884    
   1817000   299.10284     -3.8725275      0              58.721374      2067.09      
   1818000   297.8201      -4.6120699      0              57.71339       2008.6265    
   1819000   286.84724     -5.6197127      0              54.409433      2079.5839    
   1820000   291.74088     -5.678083       0              55.375165      1948.5648    
   1821000   302.66124     -3.5804158      0              59.758161      2219.2696    
   1822000   297.55723     -3.1639091      0              59.10654       2169.8983    
   1823000   289.74692     -5.1206662      0              55.515302      2082.9089    
   1824000   297.84332     -4.7081707      0              57.622149      2055.4597    
   1825000   304.6568      -6.2448692      0              57.511322      2088.8931    
   1826000   299.68183     -5.4171277      0              57.297941      2128.7093    
   1827000   290.81815     -5.0437594      0              55.816387      2065.9185    
   1828000   301.95342     -6.218634       0              56.971814      2100.7829    
   1829000   289.69945     -4.8813196      0              55.744714      2020.4647    
   1830000   297.90303     -4.7470147      0              57.5958        2015.0552    
   1831000   313.59573     -4.0627119      0              61.564149      2238.0316    
   1832000   308.26719     -5.2567552      0              59.254991      2044.515     
   1833000   302.26582     -4.3101252      0              58.945699      2118.3822    
   1834000   289.90937     -3.9019675      0              56.767998      2165.4267    
   1835000   308.63611     -3.841186       0              60.747765      2124.7298    
   1836000   297.63647     -4.2154986      0              58.071532      1968.7105    
   1837000   299.09703     -4.5609561      0              58.031731      2073.7458    
   1838000   296.2235      -5.1708034      0              56.820532      2164.1724    
   1839000   294.3559      -5.0877707      0              56.512728      2055.6478    
   1840000   301.36628     -4.1168867      0              58.950691      2122.0922    
   1841000   301.5292      -3.8701969      0              59.231475      2101.8822    
   1842000   302.25637     -3.6166916      0              59.637156      2041.4709    
   1843000   308.83475     -4.6299367      0              60.000584      2024.1768    
   1844000   288.11289     -4.9705011      0              55.32351       2004.768     
   1845000   301.28971     -5.9635006      0              57.088052      2120.0308    
   1846000   298.19668     -4.4469581      0              57.957309      2044.3125    
   1847000   296.09436     -5.0299856      0              56.934325      2067.3411    
   1848000   304.91409     -4.203715       0              59.60632       2106.9327    
   1849000   303.26091     -5.4385206      0              58.02555       2075.3686    
   1850000   299.68403     -4.9822582      0              57.73327       2067.0665    
   1851000   301.19248     -5.6680589      0              57.363146      2118.7947    
   1852000   294.24625     -5.4838936      0              56.093658      2038.7968    
   1853000   305.44236     -3.9246783      0              59.995909      2086.2968    
   1854000   303.24106     -3.7732654      0              59.686651      2057.1329    
   1855000   296.35993     -4.0076602      0              58.012227      2043.5905    
   1856000   305.75495     -3.1057633      0              60.88024       2163.8004    
   1857000   304.17213     -4.94563        0              58.709134      2120.3755    
   1858000   300.11327     -4.1081943      0              58.697162      2045.8686    
   1859000   305.5458      -6.2361519      0              57.706081      2119.353     
   1860000   307.05351     -4.1940147      0              60.06374       2197.8471    
   1861000   306.35104     -6.2330076      0              57.877741      2004.5693    
   1862000   302.26358     -5.3043582      0              57.950998      2185.2322    
   1863000   301.12373     -4.3469845      0              58.669833      2078.7025    
   1864000   302.35018     -3.1824327      0              60.091048      2153.9896    
   1865000   309.2633      -3.6912462      0              61.028957      2150.587     
   1866000   305.26777     -3.7810925      0              60.102957      2188.834     
   1867000   285.60878     -4.9182899      0              54.85168       2113.9595    
   1868000   305.35265     -5.6944934      0              58.207319      2085.4775    
   1869000   298.06203     -5.0566949      0              57.319395      2139.0219    
   1870000   304.60713     -3.6457224      0              60.100075      2046.9373    
   1871000   317.1455      -3.5444453      0              62.825283      2113.4611    
   1872000   295.17934     -6.696403       0              55.07642       2030.0499    
   1873000   308.12768     -7.6584755      0              56.824075      1982.6261    
   1874000   288.29688     -4.9516702      0              55.380845      2022.1055    
   1875000   298.0213      -6.1083328      0              56.259233      2157.091     
   1876000   306.02143     -4.3699874      0              59.671783      2118.1363    
   1877000   297.6093      -3.6568821      0              58.624462      2228.9348    
   1878000   298.07006     -4.1507324      0              58.227037      2177.9479    
   1879000   294.60709     -5.2773366      0              56.37573       2012.217     
   1880000   297.27332     -5.062054       0              57.148981      2010.3012    
   1881000   311.79992     -5.0659384      0              60.185109      2186.0695    
   1882000   302.1228      -5.7626907      0              57.463205      2114.9668    
   1883000   305.48032     -6.3762711      0              57.552259      2070.7616    
   1884000   292.69445     -5.4138284      0              55.838975      2089.965     
   1885000   308.36627     -3.3110843      0              61.221396      2176.7576    
   1886000   301.72283     -4.4505589      0              58.691635      2086.7433    
   1887000   297.55061     -4.135732       0              58.133332      2151.4194    
   1888000   310.07088     -3.0502983      0              61.838909      2183.666     
   1889000   299.48667     -4.2592811      0              58.414946      2030.4686    
   1890000   297.39356     -3.5719494      0              58.664247      2103.4464    
   1891000   311.21518     -4.9022359      0              60.226442      2134.8549    
   1892000   296.9351      -5.3506599      0              56.789595      2109.1892    
   1893000   296.23006     -5.8880199      0              56.104689      1995.4895    
   1894000   294.73136     -4.6230015      0              57.056072      2186.3397    
   1895000   290.00366     -3.6629747      0              57.026722      2043.4275    
   1896000   291.18595     -6.7851026      0              54.152015      2055.642     
   1897000   311.09546     -4.2477477      0              60.855875      2141.55      
   1898000   304.86026     -5.1791011      0              58.619668      1983.1546    
   1899000   301.18998     -5.4306862      0              57.599996      2127.3158    
   1900000   297.92859     -3.7858693      0              58.562294      2071.9736    
   1901000   309.01906     -4.797958       0              59.871132      2168.718     
   1902000   297.32065     -4.2544999      0              57.966439      2011.3492    
   1903000   294.9796      -4.8963736      0              56.834649      1990.7445    
   1904000   302.45347     -4.2928587      0              59.002238      2053.3016    
   1905000   297.16984     -3.0427992      0              59.14658       2140.6525    
   1906000   289.45662     -6.0519099      0              54.523307      2060.216     
   1907000   298.95973     -5.2513009      0              57.312652      2084.901     
   1908000   300.77095     -5.0846842      0              57.858307      2061.827     
   1909000   314.79787     -4.7175815      0              61.160853      2138.1589    
   1910000   295.00726     -4.2822025      0              57.454608      2083.1685    
   1911000   298.66783     -4.6650059      0              57.837861      1979.7123    
   1912000   294.48986     -4.6620349      0              56.966498      2115.7601    
   1913000   301.00723     -4.5279329      0              58.464504      2135.0439    
   1914000   312.88228     -5.1958052      0              60.28175       2121.4128    
   1915000   306.29883     -4.6085121      0              59.49131       2045.5303    
   1916000   290.68978     -4.8561487      0              55.977133      2053.5922    
   1917000   298.8314      -4.8137287      0              57.723368      2132.7983    
   1918000   296.77026     -4.0465823      0              58.059175      2128.5413    
   1919000   287.92516     -4.7743137      0              55.480411      2022.5324    
   1920000   296.11681     -3.9068252      0              58.062184      2095.4367    
   1921000   307.12445     -3.2231606      0              61.049441      2195.758     
   1922000   299.81401     -5.0840903      0              57.65864       1982.955     
   1923000   302.8072      -5.1742958      0              58.194825      2101.5823    
   1924000   306.60488     -4.8724377      0              59.291433      2147.3663    
   1925000   309.43564     -3.2886331      0              61.467636      2219.27      
   1926000   305.3739      -3.8563128      0              60.049946      2152.5709    
   1927000   302.4784      -4.3376001      0              58.962712      2172.6299    
   1928000   295.85683     -4.1777926      0              57.736809      2015.89      
   1929000   309.50735     -3.6547191      0              61.116556      2099.3659    
   1930000   294.51892     -4.8179733      0              56.816641      2200.051     
   1931000   299.82122     -3.4484507      0              59.295788      2045.4029    
   1932000   298.77581     -4.2261936      0              58.299271      2181.7323    
   1933000   302.91163     -4.0200775      0              59.370897      2211.0047    
   1934000   310.33915     -3.4954898      0              61.449859      2222.0133    
   1935000   292.26177     -5.9842359      0              55.17802       2108.2429    
   1936000   295.35551     -6.8513921      0              54.958299      2001.264     
   1937000   311.73503     -6.3167571      0              58.920711      2028.7483    
   1938000   294.73788     -5.3501142      0              56.330323      2088.18      
   1939000   308.35288     -5.0662886      0              59.46339       2085.608     
   1940000   298.20566     -5.0516709      0              57.354475      2078.1129    
   1941000   291.75286     -4.8467662      0              56.208989      1948.4317    
   1942000   303.13909     -4.6433865      0              58.79519       2132.3666    
   1943000   294.30208     -5.4092549      0              56.179981      2037.3076    
   1944000   302.20049     -5.0677701      0              58.174384      2117.554     
   1945000   297.90881     -4.6526174      0              57.691407      2025.6793    
   1946000   304.68769     -6.2443375      0              57.518317      2091.2657    
   1947000   297.69438     -5.041303       0              57.257847      2138.962     
   1948000   293.70111     -5.891899       0              55.57157       2008.5363    
   1949000   304.9263      -4.8145509      0              58.998038      2137.8785    
   1950000   302.14481     -5.4652733      0              57.765228      2021.0812    
   1951000   302.66315     -3.3620743      0              59.976901      2133.4003    
   1952000   288.95662     -4.1097183      0              56.360863      2065.8043    
   1953000   301.63413     -6.9459641      0              56.177666      1945.479     
   1954000   300.60331     -6.7367622      0              56.171146      2043.4472    
   1955000   287.87842     -5.8051447      0              54.439799      2033.284     
   1956000   309.58054     -4.4647494      0              60.321844      2160.1937    
   1957000   292.23992     -4.2110085      0              56.946676      2091.1553    
   1958000   282.30907     -2.4134003      0              56.666034      2151.9443    
   1959000   294.24347     -5.89965        0              55.677321      1989.3658    
   1960000   297.3103      -5.2129372      0              57.005837      1980.6164    
   1961000   302.19481     -6.1035876      0              57.137378      2039.1394    
   1962000   301.97994     -3.6885407      0              59.507458      2072.9146    
   1963000   290.14494     -3.6329594      0              57.086303      2034.1347    
   1964000   294.88311     -3.9063846      0              57.804446      2121.0506    
   1965000   286.61032     -4.8264478      0              55.153117      2090.8655    
   1966000   301.71857     -4.7039069      0              58.437395      2066.1822    
   1967000   319.02238     -4.4862909      0              62.276216      2084.0055    
   1968000   299.79834     -4.7011297      0              58.038321      2080.3199    
   1969000   301.40818     -3.7800913      0              59.296254      2212.9964    
   1970000   293.04674     -4.7825709      0              56.543959      2073.9432    
   1971000   288.71028     -3.9688931      0              56.450136      2199.1135    
   1972000   300.68753     -4.4065965      0              58.518936      2088.5677    
   1973000   299.4433      -4.0066171      0              58.658534      2087.3116    
   1974000   297.61792     -5.5161113      0              56.767039      2040.4317    
   1975000   297.72812     -4.3992855      0              57.906926      2054.1811    
   1976000   293.7538      -5.3273088      0              56.147187      2170.7366    
   1977000   297.25506     -4.5545386      0              57.652675      2120.4133    
   1978000   303.66169     -3.6319109      0              59.916032      2104.7825    
   1979000   292.13349     -3.8372335      0              57.298176      2144.9691    
   1980000   290.45788     -5.2967713      0              55.487982      1999.9173    
   1981000   292.80452     -3.6133518      0              57.662487      2100.4466    
   1982000   299.97784     -4.1879496      0              58.589065      2125.1876    
   1983000   308.72672     -4.6102875      0              59.997624      2104.4547    
   1984000   288.92635     -3.800479       0              56.663767      2200.6558    
   1985000   301.9281      -5.0775146      0              58.107636      2078.7982    
   1986000   307.38949     -4.4828754      0              59.845191      2133.6174    
   1987000   292.39498     -4.1317669      0              57.058366      2102.8937    
   1988000   292.3626      -4.6942104      0              56.489147      2012.8788    
   1989000   291.76984     -7.6501913      0              53.409118      1978.7443    
   1990000   301.25901     -3.3789929      0              59.666136      2124.952     
   1991000   292.04229     -4.9039179      0              56.212407      2054.933     
   1992000   298.2595      -5.5999945      0              56.817419      2141.7649    
   1993000   295.07047     -5.2172218      0              56.532818      2083.9766    
   1994000   306.35847     -5.1486915      0              58.963612      2053.4271    
   1995000   299.01069     -3.7422884      0              58.832329      2087.3974    
   1996000   297.67119     -4.3742473      0              57.920051      2114.5791    
   1997000   302.7175      -3.8431916      0              59.507158      2023.3592    
   1998000   309.48951     -4.6778277      0              60.089716      2069.3506    
   1999000   294.35005     -2.9652573      0              58.634018      2079.6464    
   2000000   301.73174     -3.3150721      0              59.828985      2137.7346    
   2000101   303.29675     -3.8147313      0              59.656838      2077.7549    
Loop time of 13967.8 on 16 procs for 2000000 steps with 1620 atoms

Performance: 6.186 ns/day, 3.880 hours/ns, 143.187 timesteps/s
99.9% CPU use with 16 MPI tasks x 1 OpenMP threads

MPI task timing breakdown:
Section |  min time  |  avg time  |  max time  |%varavg| %total
---------------------------------------------------------------
Pair    | 10958      | 11880      | 12903      | 626.2 | 85.06
Bond    | 1.5391     | 1.606      | 1.7224     |   3.5 |  0.01
Neigh   | 16.117     | 16.72      | 17.287     |  11.2 |  0.12
Comm    | 991.43     | 2014.6     | 2937.7     |1521.4 | 14.42
Output  | 1.11       | 1.1105     | 1.1117     |   0.0 |  0.01
Modify  | 28.265     | 28.666     | 28.899     |   3.6 |  0.21
Other   |            | 24.74      |            |       |  0.18

Nlocal:         101.25 ave         109 max          92 min
Histogram: 1 0 3 0 1 4 2 3 1 1
Nghost:        5066.56 ave        5106 max        5042 min
Histogram: 1 2 5 1 1 4 1 0 0 1
Neighs:        51648.6 ave       55859 max       44620 min
Histogram: 1 1 0 2 1 1 2 3 2 3

Total # of neighbors = 826377
Ave neighs/atom = 510.10926
Ave special neighs/atom = 0
Neighbor list builds = 10406
Dangerous builds = 0
comm_modify cutoff 27.58
compute myRDF all rdf 1129 cutoff 22.58
fix 2 all ave/time 1 1 1 c_myRDF[*] file ljg2_nvt_48rdf.rdf mode vector
run 0 pre yes post no
Generated 0 of 0 mixed pair_coeff terms from geometric mixing rule
WARNING: Compute rdf cutoff less than neighbor cutoff - forcing a needless neighbor list build (src/compute_rdf.cpp:179)
Neighbor list info ...
  update every 1 steps, delay 0 steps, check yes
  max neighbors/atom: 200000, page size: 2000000000
  master list distance cutoff = 27
  ghost atom cutoff = 27.58
  binsize = 13.5, bins = 4 5 4
  4 neighbor lists, perpetual/occasional/extra = 3 1 0
  (1) pair lj/cut, perpetual
      attributes: half, newton on
      pair build: half/bin/newton
      stencil: half/bin/3d
      bin: standard
  (2) pair gauss/cut, perpetual, copy from (1)
      attributes: half, newton on
      pair build: copy
      stencil: none
      bin: none
  (3) pair gauss/cut, perpetual, copy from (1)
      attributes: half, newton on
      pair build: copy
      stencil: none
      bin: none
  (4) compute rdf, occasional
      attributes: half, newton on, cut 24.58
      pair build: half/bin/newton
      stencil: half/bin/3d
      bin: standard
Per MPI rank memory allocation (min/avg/max) = 3.053e+04 | 3.053e+04 | 3.053e+04 Mbytes
   Step          Temp          E_pair         E_mol          TotEng         Press     
   2000101   303.29675     -3.8147313      0              59.656838      2077.7549    
Loop time of 4.71712e-06 on 16 procs for 0 steps with 1620 atoms

uncompute myRDF
unfix 2
write_data ljg2_nvt_48/ca_md.data nocoeff nofix
System init for write_data ...
Generated 0 of 0 mixed pair_coeff terms from geometric mixing rule
Neighbor list info ...
  update every 1 steps, delay 0 steps, check yes
  max neighbors/atom: 200000, page size: 2000000000
  master list distance cutoff = 27
  ghost atom cutoff = 27.58
  binsize = 13.5, bins = 4 5 4
  3 neighbor lists, perpetual/occasional/extra = 3 0 0
  (1) pair lj/cut, perpetual
      attributes: half, newton on
      pair build: half/bin/newton
      stencil: half/bin/3d
      bin: standard
  (2) pair gauss/cut, perpetual, copy from (1)
      attributes: half, newton on
      pair build: copy
      stencil: none
      bin: none
  (3) pair gauss/cut, perpetual, copy from (1)
      attributes: half, newton on
      pair build: copy
      stencil: none
      bin: none
Total wall time: 3:52:49
