region box block 0 52.794504272175 0 54.794296100667 0 45.195295323908
units metal
dimension 3
boundary p p p
atom_style full
create_box 1 box
Created orthogonal box = (0 0 0) to (52.794504 54.794296 45.195295)
  2 by 4 by 2 MPI processor grid
create_atoms 1 random 1620 47 box
Created 1620 atoms
  using lattice units in orthogonal box = (0 0 0) to (52.794504 54.794296 45.195295)
  create_atoms CPU = 0.003 seconds
mass 1 40.078
pair_style hybrid/overlay lj/cut 25 gauss/cut 25 gauss/cut 25
pair_coeff 1 1 lj/cut 0.009507177838705264 3.7584971993521488
pair_coeff 1 1 gauss/cut 1 -0.0597999248039827 5.991246456844763 0.601172550524922
pair_coeff 1 1 gauss/cut 2 0.0726183915985775 5.919659952808235 0.9307156951487607
run 1
WARNING: No fixes with time integration, atoms won't move (src/verlet.cpp:60)
Generated 0 of 0 mixed pair_coeff terms from geometric mixing rule
Neighbor list info ...
  update every 1 steps, delay 10 steps, check yes
  max neighbors/atom: 2000, page size: 100000
  master list distance cutoff = 27
  ghost atom cutoff = 27
  binsize = 13.5, bins = 4 5 4
  3 neighbor lists, perpetual/occasional/extra = 3 0 0
  (1) pair lj/cut, perpetual
      attributes: half, newton on
      pair build: half/bin/newton
      stencil: half/bin/3d
      bin: standard
  (2) pair gauss/cut, perpetual, copy from (1)
      attributes: half, newton on
      pair build: copy
      stencil: none
      bin: none
  (3) pair gauss/cut, perpetual, copy from (1)
      attributes: half, newton on
      pair build: copy
      stencil: none
      bin: none
Per MPI rank memory allocation (min/avg/max) = 6.989 | 6.996 | 7.005 Mbytes
   Step          Temp          E_pair         E_mol          TotEng         Press     
         0   0              8.4178973e+11  0              8.4178973e+11  4.1262617e+13
         1   0              8.4178973e+11  0              8.4178973e+11  4.1262617e+13
Loop time of 0.010731 on 16 procs for 1 steps with 1620 atoms

Performance: 8.051 ns/day, 2.981 hours/ns, 93.188 timesteps/s
93.7% CPU use with 16 MPI tasks x 1 OpenMP threads

MPI task timing breakdown:
Section |  min time  |  avg time  |  max time  |%varavg| %total
---------------------------------------------------------------
Pair    | 0.00696    | 0.0083468  | 0.010322   |   0.8 | 77.78
Bond    | 8.32e-07   | 9.6888e-07 | 1.081e-06  |   0.0 |  0.01
Neigh   | 0          | 0          | 0          |   0.0 |  0.00
Comm    | 0.00026485 | 0.0022421  | 0.0036267  |   1.6 | 20.89
Output  | 8.1959e-05 | 8.3778e-05 | 8.5313e-05 |   0.0 |  0.78
Modify  | 1.387e-06  | 1.6374e-06 | 1.807e-06  |   0.0 |  0.02
Other   |            | 5.566e-05  |            |       |  0.52

Nlocal:         101.25 ave         116 max          86 min
Histogram: 1 1 2 1 3 1 3 2 0 2
Nghost:        5045.44 ave        5156 max        4930 min
Histogram: 1 1 1 3 2 1 4 0 2 1
Neighs:        51667.3 ave       62289 max       42990 min
Histogram: 1 0 2 5 4 1 1 0 0 2

Total # of neighbors = 826677
Ave neighs/atom = 510.29444
Ave special neighs/atom = 0
Neighbor list builds = 0
Dangerous builds = 0
thermo 1000
neighbor 2.0 bin
neigh_modify every 1 delay 0 check yes one 200000 page 2000000000
minimize 0.0 1.0e-8 100 1000
Generated 0 of 0 mixed pair_coeff terms from geometric mixing rule
Neighbor list info ...
  update every 1 steps, delay 0 steps, check yes
  max neighbors/atom: 200000, page size: 2000000000
  master list distance cutoff = 27
  ghost atom cutoff = 27
  binsize = 13.5, bins = 4 5 4
  3 neighbor lists, perpetual/occasional/extra = 3 0 0
  (1) pair lj/cut, perpetual
      attributes: half, newton on
      pair build: half/bin/newton
      stencil: half/bin/3d
      bin: standard
  (2) pair gauss/cut, perpetual, copy from (1)
      attributes: half, newton on
      pair build: copy
      stencil: none
      bin: none
  (3) pair gauss/cut, perpetual, copy from (1)
      attributes: half, newton on
      pair build: copy
      stencil: none
      bin: none
Per MPI rank memory allocation (min/avg/max) = 2.29e+04 | 2.29e+04 | 2.29e+04 Mbytes
   Step          Temp          E_pair         E_mol          TotEng         Press     
         1   0              8.4178973e+11  0              8.4178973e+11  4.1262617e+13
       101   0             -48.355701      0             -48.355701      771.17435    
Loop time of 1.11818 on 16 procs for 100 steps with 1620 atoms

100.0% CPU use with 16 MPI tasks x 1 OpenMP threads

Minimization stats:
  Stopping criterion = max iterations
  Energy initial, next-to-last, final = 
      841789725452.061  -48.1272120160371  -48.3557005586012
  Force two-norm initial, final = 3.3819312e+13 0.46980329
  Force max component initial, final = 1.7967273e+13 0.049920146
  Final line search alpha, max atom move = 1 0.049920146
  Iterations, force evaluations = 100 115

MPI task timing breakdown:
Section |  min time  |  avg time  |  max time  |%varavg| %total
---------------------------------------------------------------
Pair    | 0.77707    | 0.87936    | 1.0613     |   8.6 | 78.64
Bond    | 9.5421e-05 | 9.9661e-05 | 0.00010529 |   0.0 |  0.01
Neigh   | 0.010476   | 0.011832   | 0.013603   |   0.8 |  1.06
Comm    | 0.038571   | 0.22212    | 0.32572    |  17.3 | 19.86
Output  | 5.1734e-05 | 5.4015e-05 | 5.8552e-05 |   0.0 |  0.00
Modify  | 0          | 0          | 0          |   0.0 |  0.00
Other   |            | 0.004715   |            |       |  0.42

Nlocal:         101.25 ave         113 max          86 min
Histogram: 1 0 0 3 4 2 0 2 3 1
Nghost:        5029.25 ave        5101 max        4909 min
Histogram: 1 0 0 1 2 2 4 3 2 1
Neighs:        51680.9 ave       61194 max       46554 min
Histogram: 4 2 1 3 3 0 1 0 1 1

Total # of neighbors = 826894
Ave neighs/atom = 510.4284
Ave special neighs/atom = 0
Neighbor list builds = 7
Dangerous builds = 0
timestep 0.0005
fix 1 all nvt temp 300.0 300.0 $(100.0*dt)
fix 1 all nvt temp 300.0 300.0 0.050000000000000002776
fix removeMomentum all momentum 1 linear 1 1 1
dump 1 all custom 1000 ljg2_nvt_47/ca.traj id mol type mass x y z
dump_modify 1 sort id
run 2000000
Generated 0 of 0 mixed pair_coeff terms from geometric mixing rule
Per MPI rank memory allocation (min/avg/max) = 2.289e+04 | 2.289e+04 | 2.289e+04 Mbytes
   Step          Temp          E_pair         E_mol          TotEng         Press     
       101   0             -48.355701      0             -48.355701      771.17435    
      1000   174.55144     -44.972554      0             -8.4437946      1161.102     
      2000   288.8756      -13.553823      0              46.899803      1750.0274    
      3000   307.36771     -8.8149192      0              55.508589      1832.4833    
      4000   312.35368     -6.4266076      0              58.940327      2072.4931    
      5000   307.18152     -5.8100557      0              58.474488      2148.4434    
      6000   294.64464     -5.9874993      0              55.673424      2045.6863    
      7000   294.16608     -5.5734487      0              55.987326      2035.8291    
      8000   309.90658     -5.6524948      0              59.202329      2106.9396    
      9000   293.29971     -5.5481535      0              55.831315      2057.4234    
     10000   301.01815     -3.0806389      0              59.914085      2112.4069    
     11000   297.40855     -2.6798241      0              59.55951       2085.6559    
     12000   295.91932     -4.8082102      0              57.119469      2057.4902    
     13000   296.37316     -3.9158259      0              58.106829      2065.1837    
     14000   303.60044     -5.586367       0              57.948757      2028.8748    
     15000   289.22213     -4.7371369      0              55.789006      2165.8836    
     16000   304.41467     -5.382757       0              58.322762      2074.3717    
     17000   302.48827     -4.9395348      0              58.362844      1982.196     
     18000   315.60463     -3.5739404      0              62.473327      2066.8098    
     19000   300.26519     -5.7922094      0              57.04494       1922.582     
     20000   304.25912     -5.4579784      0              58.21499       1980.0437    
     21000   309.38833     -2.9493039      0              61.797065      2172.526     
     22000   305.39475     -5.3098671      0              58.600756      2087.9534    
     23000   286.89019     -3.5697331      0              56.468401      2173.6426    
     24000   302.01395     -4.0406909      0              59.162425      2170.1011    
     25000   289.47446     -3.9912453      0              56.587705      2185.8317    
     26000   301.34502     -4.4171655      0              58.645963      2169.4813    
     27000   303.00131     -4.2358073      0              59.173936      2103.4227    
     28000   296.74227     -5.0721452      0              57.027755      2132.4858    
     29000   309.47499     -4.7128893      0              60.051615      2137.0556    
     30000   299.6464      -3.6658751      0              59.041778      2177.3854    
     31000   304.36711     -4.1433591      0              59.552207      2067.4453    
     32000   302.79465     -5.5734994      0              57.792996      1993.0383    
     33000   293.42384     -4.9429166      0              56.462529      2007.0187    
     34000   300.64968     -4.3359533      0              58.581659      2067.8125    
     35000   295.08249     -3.7630786      0              57.989476      2131.2278    
     36000   310.69039     -5.2933846      0              59.725469      2016.6293    
     37000   289.1968      -4.52112        0              55.999723      2166.3752    
     38000   300.07922     -2.4864322      0              60.311799      2077.9755    
     39000   298.43708     -4.1889823      0              58.265595      2071.7625    
     40000   301.53441     -4.0663448      0              59.036417      2130.4132    
     41000   313.55662     -4.6491945      0              60.969481      2132.6787    
     42000   309.78008     -4.2647412      0              60.56361       2166.0566    
     43000   303.64311     -7.0051902      0              56.538863      2074.2333    
     44000   303.29493     -4.6168683      0              58.854322      2003.419     
     45000   290.3554      -5.1640574      0              55.599248      2049.2674    
     46000   296.77456     -4.750531       0              57.356126      2044.4238    
     47000   293.19486     -4.0882942      0              57.269232      2102.6258    
     48000   296.14921     -5.1542577      0              56.821531      2105.4192    
     49000   288.95372     -5.8664618      0              54.603512      1977.2056    
     50000   300.57055     -5.7369762      0              57.164077      2039.1505    
     51000   305.25718     -4.6738689      0              59.207965      2180.7096    
     52000   307.4994      -5.7783301      0              58.572738      2109.0103    
     53000   294.69162     -4.5716651      0              57.09909       2118.6924    
     54000   297.20773     -4.6439515      0              57.553357      2135.9515    
     55000   303.27889     -4.6293363      0              58.838497      2074.9274    
     56000   291.96027     -1.5762539      0              59.522907      2171.4991    
     57000   301.57674     -4.3000747      0              58.811545      2192.3318    
     58000   299.73564     -5.0916011      0              57.634729      2109.3831    
     59000   293.10427     -4.9060293      0              56.432539      1990.7689    
     60000   304.05115     -5.0763469      0              58.553099      2071.9141    
     61000   308.4688      -6.477861       0              58.076076      2031.1634    
     62000   298.84085     -4.1287176      0              58.410356      2092.9857    
     63000   296.91682     -5.2827799      0              56.853649      2035.6077    
     64000   310.96292     -6.0063766      0              59.06951       2031.9666    
     65000   291.9026      -3.3702729      0              57.716818      2219.8073    
     66000   292.1474      -3.6370091      0              57.501313      2169.5889    
     67000   306.68119     -5.9053207      0              58.274519      2103.4965    
     68000   306.48599     -5.3783822      0              58.760608      2117.2034    
     69000   301.0956      -4.512693       0              58.498239      2090.7387    
     70000   292.28763     -4.3842305      0              56.783438      2163.2677    
     71000   300.48236     -5.5623223      0              57.320274      2167.9751    
     72000   292.8897      -3.9790788      0              57.314586      2106.4151    
     73000   288.91517     -5.7984576      0              54.663447      1846.4992    
     74000   299.08734     -4.2495681      0              58.34109       2011.2356    
     75000   301.33076     -5.3121245      0              57.748019      2106.7306    
     76000   305.92619     -4.2155273      0              59.806311      2135.8311    
     77000   303.24066     -3.6194306      0              59.840401      2118.2044    
     78000   290.4757      -4.8111377      0              55.977343      2067.0723    
     79000   291.85373     -5.6863025      0              55.390562      2033.4275    
     80000   300.91135     -5.1067727      0              57.865601      2086.9299    
     81000   298.726       -3.1655408      0              59.349499      2108.7662    
     82000   293.29795     -4.344113       0              57.034987      2075.1257    
     83000   299.8624      -3.2443344      0              59.508522      2094.3972    
     84000   297.35441     -3.1439295      0              59.084074      2072.5099    
     85000   300.18851     -4.1124833      0              58.708619      2019.461     
     86000   295.24214     -3.4832218      0              58.302744      2106.4811    
     87000   306.0304      -5.2397864      0              58.80386       2131.6809    
     88000   300.17562     -4.2353783      0              58.583026      2142.1139    
     89000   299.04403     -4.682547       0              57.899047      2037.7351    
     90000   306.51773     -4.6657672      0              59.479865      2103.2197    
     91000   298.33338     -4.4884364      0              57.944439      2066.8869    
     92000   310.82437     -4.9873793      0              60.059514      2017.8646    
     93000   301.78069     -5.1102712      0              58.04403       2097.3894    
     94000   299.93612     -4.3825039      0              58.385781      2107.4139    
     95000   301.91935     -4.0362734      0              59.147045      2043.7154    
     96000   298.31072     -3.9331487      0              58.494985      2175.3904    
     97000   291.65586     -4.5853222      0              56.450135      2142.798     
     98000   298.26178     -4.2074551      0              58.210435      2070.7322    
     99000   288.82352     -3.8441866      0              56.59854       2088.6373    
    100000   296.2154      -4.2196922      0              57.769949      2224.4966    
    101000   299.09105     -5.0251381      0              57.566295      2164.3764    
    102000   299.47984     -4.7826844      0              57.890112      2190.3392    
    103000   312.09218     -3.9850453      0              61.327164      2120.6153    
    104000   294.58876     -5.4483221      0              56.200908      2070.9111    
    105000   302.56337     -3.3976722      0              59.920421      2136.2593    
    106000   302.51985     -4.8817894      0              58.427197      2229.2039    
    107000   303.28405     -4.0191475      0              59.449766      2065.2698    
    108000   292.89464     -4.8418164      0              56.452881      1981.5036    
    109000   287.6215      -4.1355066      0              56.05567       2158.4333    
    110000   300.83808     -4.8564348      0              58.100604      2142.1364    
    111000   300.16027     -5.2556684      0              57.559525      2111.7169    
    112000   303.12945     -5.2856263      0              58.150933      2087.3813    
    113000   301.25878     -4.3896917      0              58.655388      2191.4559    
    114000   303.3494      -5.7263755      0              57.756214      2046.5738    
    115000   299.19144     -3.468404       0              59.14404       2072.1196    
    116000   293.44472     -4.3837721      0              57.026043      2060.1501    
    117000   300.54908     -3.9331599      0              58.9634        2108.6028    
    118000   292.55386     -5.4971236      0              55.726259      1995.1563    
    119000   302.34423     -4.684403       0              58.587832      2012.036     
    120000   295.97952     -3.4925223      0              58.447755      2200.0767    
    121000   298.72169     -4.7239743      0              57.790164      1986.1891    
    122000   299.74548     -4.3947441      0              58.333644      2242.7691    
    123000   295.72426     -4.3473771      0              57.539481      1963.8892    
    124000   294.61368     -4.9363179      0              56.718128      2091.7341    
    125000   299.89753     -4.7900275      0              57.970181      2117.2129    
    126000   308.32985     -2.8942946      0              61.630563      2165.9698    
    127000   299.35577     -3.2683113      0              59.378522      2165.6828    
    128000   302.61792     -4.9696557      0              58.359855      2224.4912    
    129000   301.57022     -4.7528537      0              58.357401      2143.6778    
    130000   305.45174     -5.3661164      0              58.556433      1996.2842    
    131000   293.03345     -5.4903235      0              55.833423      2042.2281    
    132000   300.5309      -3.258874       0              59.633881      2084.2735    
    133000   299.72406     -3.7509286      0              58.972977      2067.0249    
    134000   305.34398     -3.5347474      0              60.365251      2153.6326    
    135000   299.29216     -5.4557768      0              57.177744      2029.9459    
    136000   304.62725     -5.604644       0              58.145364      2059.331     
    137000   304.64382     -4.6038445      0              59.14963       2069.0089    
    138000   311.20592     -4.4708098      0              60.655931      2096.1787    
    139000   297.33935     -4.8983795      0              57.326473      2003.2441    
    140000   305.3417      -3.4416389      0              60.457883      2194.8388    
    141000   304.03382     -4.6245363      0              59.001282      2138.1507    
    142000   300.20859     -5.7045808      0              57.120723      1874.5706    
    143000   293.2807      -5.0724651      0              56.303024      2050.5979    
    144000   304.0116      -4.071548       0              59.549622      2117.6009    
    145000   304.99047     -4.4137493      0              59.41227       2073.1518    
    146000   292.19698     -3.0561644      0              58.092532      2136.8878    
    147000   306.80277     -5.7608906      0              58.444392      2019.8362    
    148000   297.71273     -4.6730149      0              57.629975      2106.136     
    149000   294.83334     -4.8076417      0              56.892772      2132.6821    
    150000   311.02204     -4.9723997      0              60.115859      2114.4019    
    151000   299.06903     -4.8962598      0              57.690566      2176.0802    
    152000   295.49426     -4.3325753      0              57.50615       2106.529     
    153000   305.75291     -5.4045152      0              58.58106       1950.328     
    154000   305.10079     -6.3042085      0              57.544897      2066.8518    
    155000   301.2773      -5.6267895      0              57.422166      2026.0076    
    156000   290.05875     -5.9283439      0              54.772882      2089.2974    
    157000   302.14831     -5.5652098      0              57.666025      2068.8486    
    158000   297.59093     -3.8687384      0              58.408762      1930.9168    
    159000   305.7167      -2.7756448      0              61.202354      2034.4722    
    160000   297.87793     -3.3470367      0              58.990525      2138.1752    
    161000   308.5149      -3.680757       0              60.882827      2127.4195    
    162000   304.19149     -3.5691524      0              60.089663      2050.6019    
    163000   292.86808     -2.9164623      0              58.372677      2187.0774    
    164000   305.97524     -4.7155538      0              59.316551      2102.9603    
    165000   289.04224     -3.8233838      0              56.665113      2107.1028    
    166000   301.37228     -3.0568626      0              60.011969      2180.6617    
    167000   290.16012     -4.5384965      0              56.183942      2134.3281    
    168000   296.08455     -5.2001539      0              56.762103      2038.8188    
    169000   298.95205     -5.1686588      0              57.393687      2102.142     
    170000   296.49125     -4.2135888      0              57.83378       2128.4944    
    171000   299.74301     -5.2436201      0              57.484251      2046.3603    
    172000   299.40885     -4.7985442      0              57.859397      2146.4247    
    173000   294.70762     -5.1936405      0              56.480465      2084.1822    
    174000   310.31179     -6.0824043      0              58.857218      2077.7973    
    175000   311.9534      -6.8445744      0              58.438592      1957.6741    
    176000   286.42662     -4.6018534      0              55.339268      2169.7185    
    177000   289.51462     -5.1133078      0              55.474047      2011.7739    
    178000   286.66987     -5.060914       0              54.931113      2009.9154    
    179000   306.08771     -3.0250742      0              61.030567      2154.7997    
    180000   309.80079     -4.3423806      0              60.490304      2149.0524    
    181000   294.83317     -5.1099034      0              56.590475      2088.7621    
    182000   302.9946      -3.8682386      0              59.5401        2011.257     
    183000   305.4301      -4.6206032      0              59.297418      2075.6535    
    184000   294.52477     -3.4240644      0              58.211776      2181.555     
    185000   301.37833     -5.2652776      0              57.804822      2044.0112    
    186000   300.63959     -3.4812325      0              59.434268      2168.3164    
    187000   298.27536     -3.2168887      0              59.203845      1965.4639    
    188000   299.86815     -5.2218352      0              57.532225      2089.4335    
    189000   298.96753     -5.9490237      0              56.616562      2002.028     
    190000   304.97441     -5.7953855      0              58.027273      2093.0555    
    191000   296.73799     -4.2590971      0              57.839907      2142.9317    
    192000   292.64504     -4.0487933      0              57.19367       2084.0146    
    193000   298.66561     -3.5701746      0              58.932227      2160.2308    
    194000   292.0684      -3.9335524      0              57.188236      2155.4687    
    195000   302.06091     -4.982329       0              58.230614      2104.776     
    196000   295.57806     -7.4324661      0              54.423798      1936.0846    
    197000   284.87585     -4.6032159      0              55.013373      2046.5174    
    198000   306.85707     -4.2495657      0              59.967082      2070.029     
    199000   291.11245     -4.5711616      0              56.350574      2108.4274    
    200000   308.4024      -5.0470239      0              59.493018      2119.9902    
    201000   300.62328     -5.0895617      0              57.822527      2042.6991    
    202000   286.9265      -3.5713231      0              56.47441       2047.1082    
    203000   296.27389     -4.3706453      0              57.631236      1992.6653    
    204000   301.69177     -5.5812651      0              57.554427      2103.2766    
    205000   296.09077     -3.7744484      0              58.189112      2121.6581    
    206000   309.7643      -3.3650399      0              61.46001       2111.6899    
    207000   293.75165     -5.798605       0              55.675442      2038.612     
    208000   307.97464     -5.6913581      0              58.759165      2077.4039    
    209000   302.18264     -4.384082       0              58.854336      2006.3244    
    210000   307.12588     -4.7804115      0              59.492489      2121.0228    
    211000   292.56444     -4.9177158      0              56.30788       2083.1714    
    212000   295.8307      -4.6111981      0              57.297937      2040.1531    
    213000   307.28664     -5.8519984      0              58.454545      2007.8504    
    214000   297.83404     -3.6372685      0              58.691108      2211.0231    
    215000   290.99716     -5.514927       0              55.382682      2011.6883    
    216000   299.64596     -5.3118233      0              57.395739      2136.231     
    217000   302.64031     -3.867307       0              59.466888      2188.0318    
    218000   305.21494     -4.6611177      0              59.211877      2072.4695    
    219000   310.77535     -3.5594255      0              61.477208      2013.9097    
    220000   290.7382      -4.7169364      0              56.126479      2115.5519    
    221000   293.98564     -5.9232848      0              55.59973       2110.1692    
    222000   292.74996     -5.2444425      0              56.019977      2144.1787    
    223000   296.77431     -4.8590392      0              57.247566      2068.148     
    224000   295.50987     -5.9444661      0              55.897528      2087.0953    
    225000   307.47635     -4.5802406      0              59.766003      2028.2314    
    226000   292.34366     -4.41335        0              56.766043      2086.947     
    227000   307.89684     -4.0055703      0              60.42867       2143.7425    
    228000   300.07976     -5.3166073      0              57.481737      2067.2435    
    229000   300.93203     -4.1857134      0              58.790987      2056.4748    
    230000   284.12546     -4.9826401      0              54.476912      1961.4267    
    231000   296.03609     -4.6541859      0              57.297931      2124.7878    
    232000   302.4698      -4.0746295      0              59.223883      2250.9728    
    233000   297.52857     -4.2174804      0              58.046971      2085.0948    
    234000   292.85718     -4.2017901      0              57.08507       2074.5989    
    235000   299.7737      -4.2812912      0              58.453003      2068.8675    
    236000   304.36306     -5.5076918      0              58.187027      2038.8921    
    237000   297.21536     -6.2848197      0              55.914084      1973.4578    
    238000   310.51191     -6.0773696      0              58.904133      2054.1296    
    239000   301.69443     -5.5784888      0              57.55776       2040.8339    
    240000   301.7134      -5.5464572      0              57.593763      1947.7545    
    241000   286.05574     -4.4179658      0              55.445541      2014.0037    
    242000   294.20513     -5.7840872      0              55.78486       2038.2888    
    243000   299.12727     -3.8507475      0              58.748267      2175.6702    
    244000   305.97602     -4.9296442      0              59.102623      2018.9939    
    245000   305.12756     -4.1891647      0              59.665544      2083.7473    
    246000   306.18703     -4.2536149      0              59.822811      2114.5726    
    247000   298.17828     -4.4395802      0              57.960837      2042.5191    
    248000   295.14093     -2.9461205      0              58.818664      2158.0055    
    249000   301.27893     -4.88593        0              58.163367      1980.8747    
    250000   304.25369     -5.0220015      0              58.64983       2096.3855    
    251000   301.96088     -3.6025545      0              59.589457      2138.2931    
    252000   302.66013     -5.3925924      0              57.945751      2081.1357    
    253000   302.42881     -5.152008       0              58.137927      2166.3996    
    254000   314.1971      -4.8916077      0              60.861102      2164.1126    
    255000   299.58134     -4.9195457      0              57.774493      2135.2533    
    256000   301.39264     -3.8924356      0              59.180658      2176.5217    
    257000   309.0063      -4.8669248      0              59.799496      2043.4224    
    258000   301.28058     -5.4214397      0              57.628203      1997.6444    
    259000   289.76788     -3.9756839      0              56.66467       2075.6311    
    260000   301.38304     -6.20524        0              56.865845      2130.7614    
    261000   303.75264     -4.8409942      0              58.725982      2042.5414    
    262000   302.34741     -5.0694922      0              58.203407      2028.5125    
    263000   292.64955     -3.3847906      0              57.858618      2056.9974    
    264000   305.31018     -3.8552122      0              60.037714      2100.5708    
    265000   303.72564     -4.1892299      0              59.372096      2158.3542    
    266000   301.95086     -4.6528579      0              58.537056      2150.1033    
    267000   311.48383     -5.6302969      0              59.554602      1995.9952    
    268000   303.29999     -5.5802253      0              57.892023      2007.2884    
    269000   304.53704     -3.7982152      0              59.932913      2173.2062    
    270000   287.62115     -3.7378802      0              56.453224      2050.3292    
    271000   310.4796      -4.6339218      0              60.34082       2060.9895    
    272000   297.25476     -4.9455206      0              57.261629      2077.9551    
    273000   298.50756     -4.6844156      0              57.78491       1961.7057    
    274000   290.03008     -3.1431969      0              57.552029      2120.6344    
    275000   303.56062     -5.8739026      0              57.652889      2070.445     
    276000   304.33332     -5.3552644      0              58.333232      2057.1793    
    277000   293.853       -6.0438314      0              55.451426      2043.0971    
    278000   294.84435     -5.821913       0              55.880805      2070.9331    
    279000   300.24532     -6.0202587      0              56.812733      1928.303     
    280000   302.07274     -6.1660405      0              57.049379      2048.1846    
    281000   307.94261     -4.1059414      0              60.337878      2087.3547    
    282000   306.93804     -5.3347929      0              58.898799      2042.7154    
    283000   296.74092     -4.5015723      0              57.598045      2115.5671    
    284000   299.67661     -3.7756359      0              58.938341      2086.6223    
    285000   306.55031     -5.1743522      0              58.978098      2103.6548    
    286000   300.40899     -4.1804683      0              58.686775      2140.6931    
    287000   295.99992     -3.5344671      0              58.41008       2166.9624    
    288000   302.63453     -4.8529565      0              58.480029      2144.1808    
    289000   293.62447     -6.1853221      0              55.262109      1927.9124    
    290000   297.0187      -4.0703689      0              58.087381      2003.0921    
    291000   293.72509     -4.047774       0              57.420713      2055.2008    
    292000   311.03359     -5.1868073      0              59.903869      2100.8117    
    293000   305.37372     -5.0555709      0              58.850652      2116.9131    
    294000   298.48227     -4.4318052      0              58.032228      2194.6482    
    295000   292.70994     -5.8884015      0              55.367645      2119.7369    
    296000   305.83056     -4.009068       0              59.992759      2092.7937    
    297000   301.71547     -4.4564793      0              58.684173      2197.5286    
    298000   293.65645     -4.3006115      0              57.153513      2086.457     
    299000   296.23018     -4.6952923      0              57.297441      2118.9147    
    300000   302.81958     -4.1761242      0              59.195589      2198.9485    
    301000   292.38457     -3.2021613      0              57.985794      2093.0574    
    302000   305.43905     -5.6188501      0              58.301045      2058.2445    
    303000   297.45059     -4.5702476      0              57.677884      2055.2913    
    304000   287.57198     -5.8268792      0              54.353934      2058.6223    
    305000   301.97198     -4.9923851      0              58.201947      2066.1799    
    306000   295.6752      -4.6720012      0              57.204591      2015.5025    
    307000   303.92232     -5.8758156      0              57.726668      1910.5523    
    308000   308.81969     -4.7297236      0              59.897645      1997.8671    
    309000   302.65692     -5.8123227      0              57.52535       2055.0606    
    310000   291.32286     -3.0287879      0              57.936981      2236.3079    
    311000   305.2578      -4.5409088      0              59.341055      2180.5041    
    312000   294.2679      -3.39762        0              58.184462      2103.5749    
    313000   294.22709     -4.8358198      0              56.737723      2034.9736    
    314000   309.69542     -6.0878065      0              58.722829      2011.2032    
    315000   302.3717      -5.6190709      0              57.658912      2102.6056    
    316000   302.5654      -5.5314317      0              57.787087      2109.6395    
    317000   289.71779     -5.7063755      0              54.923497      2091.3753    
    318000   294.69249     -5.6186821      0              56.052257      2087.798     
    319000   301.09036     -5.4078179      0              57.602016      2070.9326    
    320000   298.43278     -4.80292        0              57.650758      2138.6527    
    321000   289.92328     -5.8288678      0              54.844007      1984.3286    
    322000   296.16138     -5.3774         0              56.600936      2025.8622    
    323000   305.86553     -5.0282459      0              58.980898      2087.8513    
    324000   301.41286     -5.4086679      0              57.668657      2048.3729    
    325000   290.41087     -5.8104603      0              54.964453      1992.9464    
    326000   304.08832     -3.8617862      0              59.775438      2217.5814    
    327000   300.67489     -4.0083018      0              58.914587      2072.7742    
    328000   304.10386     -4.4028723      0              59.237604      2146.8035    
    329000   302.46148     -5.5031656      0              57.793606      2097.105     
    330000   296.59838     -5.9307628      0              56.139024      2121.1808    
    331000   292.31316     -5.1528195      0              56.020191      2001.2979    
    332000   299.31595     -4.781523       0              57.856976      2051.1649    
    333000   306.89688     -5.1424131      0              59.082564      2065.4474    
    334000   301.58176     -4.6654421      0              58.447229      2118.9778    
    335000   297.93859     -3.8339105      0              58.516346      2130.1873    
    336000   301.37566     -3.9016645      0              59.167875      2138.0468    
    337000   306.43568     -5.088998       0              59.039463      2060.7185    
    338000   303.15601     -3.725012       0              59.717106      2093.799     
    339000   306.04485     -5.1034104      0              58.943261      2108.8513    
    340000   298.31081     -2.4085068      0              60.019646      2196.4665    
    341000   301.19049     -5.7773136      0              57.253474      2094.9639    
    342000   307.11689     -4.4933592      0              59.777661      2126.4764    
    343000   301.56851     -4.7777526      0              58.332145      2046.537     
    344000   304.62421     -6.0368973      0              57.712473      2003.2004    
    345000   303.29867     -4.161759       0              59.310213      2182.3027    
    346000   299.61473     -5.6358823      0              57.065143      2082.0316    
    347000   294.86913     -4.7466592      0              56.961245      2180.5856    
    348000   296.71694     -5.7179626      0              56.376638      2060.8355    
    349000   299.51231     -3.973636       0              58.705957      2236.4419    
    350000   300.84037     -4.3402108      0              58.617309      2037.8767    
    351000   310.53169     -4.626398       0              60.359244      2110.6725    
    352000   288.56102     -4.6376509      0              55.750141      2105.8867    
    353000   296.41106     -4.5976705      0              57.432916      2028.7622    
    354000   292.19653     -2.5050967      0              58.643507      2113.1947    
    355000   298.80371     -5.5617216      0              56.969581      2100.7418    
    356000   302.04645     -4.2449648      0              58.964953      2122.3943    
    357000   293.88485     -5.153901       0              56.348022      2032.6624    
    358000   295.69835     -4.6895024      0              57.191934      2060.9871    
    359000   304.56391     -4.7233477      0              59.013404      2114.677     
    360000   291.97487     -3.8177745      0              57.284441      2134.7094    
    361000   296.23013     -5.3783877      0              56.614336      1966.5899    
    362000   308.81723     -3.2136427      0              61.413212      2217.2286    
    363000   305.74681     -4.2349296      0              59.749371      2181.7572    
    364000   303.51267     -3.5338276      0              59.98293       2069.5606    
    365000   303.49018     -4.2108296      0              59.301221      2030.1826    
    366000   295.5076      -3.703778       0              58.13774       2123.4924    
    367000   293.5979      -3.8632263      0              57.578645      2054.6707    
    368000   292.10134     -4.8344353      0              56.294247      2077.628     
    369000   288.6808      -5.8432615      0              54.569597      2029.6314    
    370000   283.35631     -3.7359363      0              55.562656      2090.7724    
    371000   301.65594     -4.1584966      0              58.969697      2113.2658    
    372000   296.61196     -5.4778944      0              56.594736      2078.9486    
    373000   309.14527     -6.0161811      0              58.679323      2133.4008    
    374000   304.33049     -3.2608646      0              60.427039      2066.1182    
    375000   292.01943     -6.4977199      0              54.613822      1989.3771    
    376000   308.646       -4.8660449      0              59.724974      2080.8712    
    377000   304.88032     -4.7922263      0              59.010741      1998.8664    
    378000   306.39892     -3.3289739      0              60.791793      2164.3454    
    379000   289.46413     -5.1697515      0              55.407037      2102.9384    
    380000   302.37716     -6.1523918      0              57.126734      2093.3488    
    381000   294.62128     -5.4308747      0              56.225162      2112.3105    
    382000   305.74984     -6.2778132      0              57.707121      2100.7279    
    383000   309.30372     -5.4941798      0              59.234483      2111.9631    
    384000   298.22294     -5.2500959      0              57.159667      2068.1243    
    385000   298.68163     -5.8252774      0              56.680476      2064.7463    
    386000   303.86175     -4.9513614      0              58.638447      2056.6823    
    387000   301.05055     -5.2975036      0              57.703999      2017.1721    
    388000   302.2958      -5.3748198      0              57.88728       2065.5526    
    389000   303.46025     -4.4747597      0              59.031026      2038.1684    
    390000   293.77449     -4.6986695      0              56.780157      1996.699     
    391000   298.6878      -4.8590553      0              57.647991      2106.149     
    392000   303.4329      -5.3187389      0              58.181325      2067.3262    
    393000   293.16144     -3.6372603      0              57.713272      2143.2121    
    394000   305.87352     -3.2304448      0              60.780372      2191.3772    
    395000   301.33732     -4.171444       0              58.890073      2068.6941    
    396000   291.36921     -5.3456646      0              55.629803      2009.0183    
    397000   302.60867     -3.8219476      0              59.505627      2128.5877    
    398000   310.49352     -3.2963358      0              61.681318      2160.198     
    399000   294.94209     -4.7321126      0              56.991059      2098.0566    
    400000   301.43267     -3.3047312      0              59.77674       2111.4094    
    401000   295.23252     -5.4751257      0              56.308826      2061.7606    
    402000   300.73229     -4.4716094      0              58.463292      2140.9756    
    403000   301.58169     -4.4994154      0              58.613241      1975.4485    
    404000   295.09101     -4.1814853      0              57.572852      2055.8176    
    405000   304.43727     -5.4639512      0              58.246299      2016.0735    
    406000   307.29312     -5.1247972      0              59.183102      2105.1865    
    407000   303.40281     -5.0295189      0              58.464246      2005.8607    
    408000   301.66775     -5.040555       0              58.090111      1998.6671    
    409000   297.95493     -3.8015717      0              58.552104      2121.0924    
    410000   299.59509     -5.3547997      0              57.342116      2065.8506    
    411000   296.00951     -4.0999082      0              57.846646      2024.5153    
    412000   291.58851     -4.6042475      0              56.417114      2082.6062    
    413000   301.37915     -3.6853223      0              59.384948      2182.8589    
    414000   298.91517     -5.4790826      0              57.075545      2045.1438    
    415000   300.45694     -4.4235623      0              58.453715      2034.6104    
    416000   296.93271     -3.7282947      0              58.41146       2070.8896    
    417000   302.35004     -2.788955       0              60.484496      2161.1808    
    418000   299.33255     -5.1911826      0              57.450791      2108.8602    
    419000   304.54424     -5.8056849      0              57.92695       2026.4198    
    420000   303.04711     -5.9528598      0              57.466468      2147.4194    
    421000   299.23814     -5.4251437      0              57.197073      2095.8111    
    422000   286.44617     -6.0628014      0              53.882411      2033.381     
    423000   304.96683     -3.4740244      0              60.347047      2049.2842    
    424000   294.53993     -4.0839304      0              57.55508       2131.6487    
    425000   305.62839     -4.7605833      0              59.198934      2123.9303    
    426000   302.07063     -6.2737678      0              56.941211      1969.6244    
    427000   298.27815     -4.9661789      0              57.455139      2154.7116    
    428000   300.98413     -3.7569046      0              59.230698      2090.3557    
    429000   305.72448     -5.2658924      0              58.713734      2047.7982    
    430000   299.92721     -3.3703144      0              59.396105      2128.9471    
    431000   307.38179     -2.5952328      0              61.731224      2121.6998    
    432000   299.82569     -4.5729642      0              58.17221       2019.6435    
    433000   300.46255     -3.5587102      0              59.319741      2068.3739    
    434000   301.81339     -3.7597015      0              59.401443      2127.1922    
    435000   292.98133     -3.2369118      0              58.075927      2230.2756    
    436000   301.17567     -3.6218873      0              59.4058        2106.3636    
    437000   299.94262     -4.800726       0              57.968919      2046.2063    
    438000   301.3788      -4.5354428      0              58.534755      2169.9731    
    439000   298.99129     -5.2083293      0              57.362228      2163.987     
    440000   303.36481     -4.8402386      0              58.645576      2055.3935    
    441000   299.41211     -3.9836709      0              58.674952      2151.0033    
    442000   295.77155     -5.566712       0              56.330043      2074.1775    
    443000   311.79914     -5.2197291      0              60.031156      2016.7167    
    444000   302.3573      -5.4595677      0              57.815401      2081.2944    
    445000   295.50312     -5.6734779      0              56.167103      2032.3218    
    446000   287.59099     -5.0272927      0              55.157499      2158.6565    
    447000   297.90877     -4.9826709      0              57.361346      2114.8635    
    448000   294.78333     -5.8952891      0              55.794659      2129.155     
    449000   296.53233     -3.9771248      0              58.078841      2060.4948    
    450000   292.58793     -4.3493187      0              56.881194      2140.7378    
    451000   311.73762     -5.6134848      0              59.624524      2064.1513    
    452000   308.19708     -4.7500376      0              59.747035      2142.9737    
    453000   301.45348     -4.6784714      0              58.407354      2060.172     
    454000   294.7864      -3.0210805      0              58.669511      2228.1005    
    455000   306.30849     -3.9406697      0              60.161175      2175.0432    
    456000   302.50231     -3.7490715      0              59.556246      2110.5738    
    457000   295.36663     -4.1587326      0              57.653285      2226.6002    
    458000   306.77209     -4.575299       0              59.623564      2051.7125    
    459000   297.5361      -3.5753054      0              58.690721      2114.7006    
    460000   294.63785     -2.8534609      0              58.806043      2187.9386    
    461000   298.57653     -3.0909912      0              59.392768      2141.355     
    462000   299.77345     -4.2580356      0              58.476206      1993.9949    
    463000   307.427       -4.8756241      0              59.460294      2075.3048    
    464000   307.39521     -5.6690051      0              58.660259      2020.2609    
    465000   292.81393     -4.5514038      0              56.726405      2095.82      
    466000   301.84721     -5.0456466      0              58.122576      2046.0086    
    467000   296.52627     -5.0271195      0              57.027577      1988.7826    
    468000   314.38216     -3.8182349      0              61.973203      2147.0683    
    469000   305.41787     -3.7929509      0              60.122511      2189.1304    
    470000   297.67885     -4.8303956      0              57.465504      2140.0249    
    471000   299.97064     -4.9139763      0              57.861533      2042.1197    
    472000   303.57638     -2.2704623      0              61.259628      2095.6667    
    473000   296.04195     -4.1801102      0              57.773233      2020.8514    
    474000   300.75508     -4.7125839      0              58.227087      2230.6572    
    475000   304.23555     -5.3941494      0              58.273885      2057.7519    
    476000   305.81602     -5.3094953      0              58.689287      2133.3859    
    477000   295.26673     -5.1595571      0              56.631554      2092.5466    
    478000   308.0831      -4.0529195      0              60.420301      2096.9399    
    479000   299.16583     -2.7410108      0              59.866073      2163.6559    
    480000   302.78775     -4.4777442      0              58.887306      2126.5715    
    481000   297.62841     -4.5563018      0              57.729042      2066.1419    
    482000   304.83475     -5.8311215      0              57.962309      2054.196     
    483000   294.72824     -4.4715368      0              57.206883      2100.7331    
    484000   314.84379     -3.6802906      0              62.207754      2172.3415    
    485000   295.43194     -4.0723347      0              57.753349      2195.4567    
    486000   300.62509     -4.8003199      0              58.112146      2047.9895    
    487000   297.63158     -5.3141325      0              56.971876      2091.7231    
    488000   292.15057     -3.5268328      0              57.612151      2162.4817    
    489000   320.35321     -3.9628199      0              63.078193      2258.2817    
    490000   292.20104     -4.1344616      0              57.015086      2156.4557    
    491000   299.8355      -5.3228411      0              57.424387      2217.2799    
    492000   299.16224     -5.2395301      0              57.366802      2039.611     
    493000   307.31629     -5.5851874      0              58.72756       2131.0214    
    494000   303.31201     -4.8911446      0              58.583619      2086.8046    
    495000   311.97297     -4.225559       0              61.061703      2105.3548    
    496000   296.45033     -5.2565599      0              56.782246      2065.0754    
    497000   299.51989     -3.605804       0              59.075374      2108.179     
    498000   301.62217     -6.4831331      0              56.637995      1977.1919    
    499000   286.90677     -4.6133465      0              55.428258      1997.027     
    500000   296.2912      -4.2624656      0              57.743039      2121.5601    
    501000   297.29189     -5.6752211      0              56.5397        2097.8189    
    502000   299.9363      -4.3653777      0              58.402943      2104.2724    
    503000   291.36157     -4.901807       0              56.072063      2041.0062    
    504000   298.29019     -5.1340072      0              57.289829      2109.9608    
    505000   297.19893     -4.2912729      0              57.904193      2135.5227    
    506000   292.64389     -5.4300337      0              55.812189      1970.4221    
    507000   290.90232     -5.9098209      0              54.96794       1942.4072    
    508000   300.08659     -5.9285189      0              56.871254      2015.3552    
    509000   294.90068     -4.9173463      0              56.79716       2060.4527    
    510000   296.68043     -5.8783215      0              56.208637      1972.7571    
    511000   305.97378     -4.8927531      0              59.139045      2059.3564    
    512000   306.47824     -4.0542147      0              60.083154      2106.3923    
    513000   296.64492     -5.2022021      0              56.877326      1993.8003    
    514000   299.17448     -3.5331196      0              59.075775      2271.1238    
    515000   298.75882     -5.6490821      0              56.872827      2124.5       
    516000   299.23929     -5.0279422      0              57.594514      2048.5797    
    517000   305.34177     -4.8097487      0              59.089788      2131.1116    
    518000   302.32203     -4.0767537      0              59.190835      2155.6138    
    519000   304.26838     -3.0555948      0              60.619311      2193.5078    
    520000   287.02171     -4.2626662      0              55.802992      2085.535     
    521000   301.75257     -4.9897408      0              58.158677      2072.5645    
    522000   296.18021     -4.3443385      0              57.637938      2050.4193    
    523000   306.9252      -4.2873272      0              59.943576      2157.7131    
    524000   306.97529     -3.8624186      0              60.378968      2168.648     
    525000   302.16608     -5.8348206      0              57.400132      2050.6345    
    526000   300.58936     -3.6103218      0              59.294667      2142.2717    
    527000   295.22229     -5.9110748      0              55.870736      2148.4136    
    528000   313.83627     -3.1896106      0              62.487588      2168.1037    
    529000   289.92005     -5.3143192      0              55.357881      1982.0403    
    530000   301.35741     -4.0918484      0              58.973873      2098.6121    
    531000   302.26553     -4.6581528      0              58.597612      2017.175     
    532000   296.34168     -5.5830455      0              56.433023      1979.7357    
    533000   294.24573     -4.2970949      0              57.280349      2088.1839    
    534000   299.12715     -4.7266858      0              57.872303      2112.7733    
    535000   297.60101     -2.7555841      0              59.524026      2103.0389    
    536000   297.54521     -4.3473182      0              57.920616      2007.7694    
    537000   314.12518     -3.3865919      0              62.351067      2121.6777    
    538000   298.41434     -4.9482181      0              57.5016        2014.5433    
    539000   300.35601     -5.1637414      0              57.692414      2039.5349    
    540000   301.80379     -5.2346         0              57.924535      2130.9586    
    541000   307.34396     -3.9035592      0              60.414979      2055.8965    
    542000   294.94446     -4.2940638      0              57.429605      2080.0038    
    543000   293.03638     -4.7085436      0              56.615817      2082.429     
    544000   306.1099      -4.2221992      0              59.838086      2220.7777    
    545000   296.40757     -4.6951124      0              57.334745      2073.6413    
    546000   301.97336     -3.712387       0              59.482235      2148.0893    
    547000   301.45399     -3.4762231      0              59.609709      2227.8011    
    548000   305.71489     -3.8830602      0              60.094561      2239.7014    
    549000   303.18582     -4.174497       0              59.273859      2042.6822    
    550000   294.16943     -5.1789692      0              56.382508      2102.8913    
    551000   297.41175     -6.2550324      0              55.984972      1990.4909    
    552000   297.84589     -3.5764441      0              58.754414      2027.258     
    553000   296.6086      -4.2030004      0              57.868926      2095.3851    
    554000   303.18599     -4.9918384      0              58.456553      2057.2307    
    555000   288.23487     -4.8218216      0              55.497716      2114.8027    
    556000   287.38704     -4.0539711      0              56.08814       2029.4381    
    557000   299.09704     -4.0012616      0              58.591426      2141.5987    
    558000   302.85824     -5.0564307      0              58.323372      2135.2612    
    559000   301.10751     -3.1111971      0              59.902227      2158.1333    
    560000   310.00826     -5.9064923      0              58.96961       2032.0158    
    561000   293.00973     -4.9978886      0              56.320895      1977.5873    
    562000   294.29162     -5.5860014      0              56.001047      2058.0176    
    563000   295.76418     -4.9094389      0              56.985774      2087.7127    
    564000   311.0242      -5.4316078      0              59.657103      2105.0213    
    565000   295.43175     -4.6506034      0              57.175041      2076.0569    
    566000   307.26561     -4.6609518      0              59.64119       2060.6864    
    567000   297.77116     -5.740901       0              56.574317      2048.403     
    568000   307.01603     -3.5426763      0              60.707236      2114.0499    
    569000   305.62523     -4.0328528      0              59.926004      2107.8631    
    570000   301.36221     -3.1483239      0              59.918402      2271.2017    
    571000   304.49927     -4.0659412      0              59.657282      2076.578     
    572000   285.77783     -4.3715896      0              55.433758      2046.4527    
    573000   295.48997     -5.2956417      0              56.542188      2024.9734    
    574000   292.98427     -3.007013       0              58.306442      2210.1679    
    575000   301.34217     -3.6212376      0              59.441294      2116.0469    
    576000   308.67557     -4.9235045      0              59.673703      2068.9676    
    577000   295.17701     -6.1172776      0              55.655056      1967.601     
    578000   317.95357     -5.6418411      0              60.896995      2036.6795    
    579000   292.29808     -4.5142356      0              56.655618      2107.0362    
    580000   297.20278     -4.5603501      0              57.635921      2082.5899    
    581000   312.03941     -5.7677981      0              59.533368      2107.0143    
    582000   300.78536     -6.1450312      0              56.800975      2039.6753    
    583000   297.98835     -3.4779274      0              58.882743      2123.831     
    584000   306.99266     -3.8647155      0              60.380306      2166.4455    
    585000   298.64717     -3.6462414      0              58.852301      2127.3872    
    586000   301.45777     -3.7718451      0              59.314879      2122.9062    
    587000   295.97618     -4.8635031      0              57.076076      2032.4779    
    588000   299.71967     -4.4022314      0              58.320756      2111.7079    
    589000   314.86811     -3.7831033      0              62.110031      2098.3395    
    590000   294.37005     -4.6668937      0              56.936567      2010.851     
    591000   303.61828     -4.1458235      0              59.393034      2115.7457    
    592000   289.4081      -2.8153511      0              57.749712      2194.775     
    593000   298.82893     -4.6714641      0              57.865116      2033.1164    
    594000   297.98133     -5.0045287      0              57.354672      2078.2121    
    595000   297.99228     -3.5048452      0              58.856647      2158.1216    
    596000   292.72863     -3.4125772      0              57.84738       2163.6308    
    597000   305.55411     -4.1759958      0              59.767976      2086.5798    
    598000   307.79876     -6.8939294      0              57.519786      2047.1616    
    599000   292.97956     -4.5794935      0              56.732977      2093.1751    
    600000   293.85824     -5.4760367      0              56.020316      1995.274     
    601000   294.52765     -5.9305871      0              55.705855      2116.1026    
    602000   299.12988     -6.0853622      0              56.514199      1910.5591    
    603000   294.81708     -4.3988092      0              57.298203      2014.8568    
    604000   299.6862      -3.8925021      0              58.82348       2156.1718    
    605000   304.70859     -2.9873653      0              60.779664      2110.9461    
    606000   290.62257     -5.1915367      0              55.627682      2005.6198    
    607000   296.93214     -4.9656252      0              57.17401       2111.4521    
    608000   291.55904     -2.4991951      0              58.515999      2181.4067    
    609000   296.96707     -5.279158       0              56.867787      2020.7952    
    610000   294.44885     -4.926017       0              56.693935      2016.6383    
    611000   305.66183     -4.5470974      0              59.419419      2091.7346    
    612000   297.85301     -3.9053163      0              58.42703       2079.8796    
    613000   297.03404     -5.1313344      0              57.029626      2003.6781    
    614000   297.95642     -2.2544112      0              60.099577      2171.2623    
    615000   298.00191     -3.5038618      0              58.859646      2156.5436    
    616000   291.38449     -4.1809421      0              56.797723      2155.2576    
    617000   300.40097     -5.5039395      0              57.361624      2035.2119    
    618000   300.47456     -4.6963418      0              58.184622      2096.3946    
    619000   300.86374     -6.2852171      0              56.677193      2038.9847    
    620000   305.3864      -5.6371524      0              58.271724      2049.8739    
    621000   299.67507     -4.2870374      0              58.426616      2045.0791    
    622000   295.77592     -5.7265283      0              56.171142      2024.7157    
    623000   301.51947     -4.788655       0              58.31098       2056.0498    
    624000   315.86171     -4.7517968      0              61.34927       2070.2573    
    625000   292.88017     -5.9885631      0              55.303106      2065.1199    
    626000   301.13478     -5.4346657      0              57.584465      2040.0796    
    627000   300.85014     -5.6597638      0              57.2998        2055.4016    
    628000   306.01383     -3.8195494      0              60.22063       2215.0328    
    629000   290.01959     -5.4847604      0              55.208269      2014.7524    
    630000   300.70423     -5.0231113      0              57.905917      2081.3965    
    631000   305.79068     -4.9731276      0              59.020353      1999.7788    
    632000   301.21075     -5.1916953      0              57.843333      2028.092     
    633000   304.78062     -5.4650802      0              58.317022      2115.5701    
    634000   290.97873     -5.3157143      0              55.578037      2127.2044    
    635000   302.48602     -4.432003       0              58.869903      2110.7691    
    636000   297.83817     -4.5311393      0              57.798102      2024.3759    
    637000   285.96673     -4.487398       0              55.357481      2178.2382    
    638000   300.93135     -4.4913168      0              58.485241      2019.4544    
    639000   296.0546      -3.9330974      0              58.022892      1944.2828    
    640000   307.49084     -3.2946109      0              61.054667      2165.3178    
    641000   296.0905      -4.8036365      0              57.159867      2102.8792    
    642000   301.87624     -5.3199096      0              57.854388      2072.2822    
    643000   303.85708     -3.449863       0              60.138968      2161.559     
    644000   304.9252      -3.7089014      0              60.103458      2052.7976    
    645000   300.02155     -5.0129344      0              57.773227      2086.2686    
    646000   300.48279     -6.4203787      0              56.462308      2032.983     
    647000   305.09254     -2.8332837      0              61.014095      2145.4373    
    648000   299.00309     -5.3510025      0              57.222024      2071.2275    
    649000   303.76926     -4.512308       0              59.058145      2083.9767    
    650000   297.71411     -5.2847485      0              57.018532      2132.4542    
    651000   296.76289     -5.495278       0              56.608938      2081.0728    
    652000   306.02842     -5.0075933      0              59.03564       2049.7927    
    653000   290.68853     -4.3261338      0              56.506887      2045.4513    
    654000   308.71781     -5.5232127      0              59.082834      2047.1896    
    655000   305.3684      -5.5461316      0              58.358978      2115.1891    
    656000   294.53055     -3.6340072      0              58.003042      2193.6343    
    657000   305.90918     -5.1288115      0              58.889469      2082.8418    
    658000   298.68719     -5.0000808      0              57.506837      2080.2431    
    659000   295.97235     -5.2373764      0              56.701402      2084.0047    
    660000   300.67813     -3.8764448      0              59.047121      2180.7813    
    661000   296.5959      -5.3242959      0              56.744973      2065.0701    
    662000   309.32348     -5.8876962      0              58.845101      2118.9021    
    663000   297.22312     -5.2823254      0              56.918203      2092.1058    
    664000   295.97651     -6.7452582      0              55.194389      2017.4626    
    665000   313.71355     -5.4724637      0              60.179053      2082.785     
    666000   302.13474     -4.469332       0              58.759062      2032.0064    
    667000   302.64996     -3.1333436      0              60.202873      2271.7376    
    668000   296.77743     -5.5464857      0              56.560772      1952.5927    
    669000   297.67685     -4.9087076      0              57.386775      2133.9471    
    670000   297.75502     -3.4150123      0              58.896829      2069.456     
    671000   305.50561     -4.3093848      0              59.624439      2143.4744    
    672000   308.25505     -4.9531587      0              59.556045      2131.3543    
    673000   296.62158     -5.111676       0              56.962968      2097.3203    
    674000   303.31321     -2.982213       0              60.492802      2188.2044    
    675000   290.8067      -4.0039901      0              56.853761      2082.3885    
    676000   298.97572     -4.901253       0              57.666046      2134.475     
    677000   301.47381     -4.6242357      0              58.465845      2082.4499    
    678000   298.71682     -4.0772814      0              58.435837      2099.9551    
    679000   297.12534     -7.24059        0              54.939475      1967.0271    
    680000   308.14963     -5.3567166      0              59.130427      1963.97      
    681000   294.60518     -2.2014169      0              59.45125       2121.883     
    682000   311.41996     -5.5927146      0              59.578817      2071.2906    
    683000   296.6111      -2.5337296      0              59.538721      2153.5075    
    684000   296.34555     -4.2661247      0              57.750754      2022.3094    
    685000   299.32079     -4.4546024      0              58.18491       2213.3196    
    686000   299.24665     -3.1660068      0              59.45799       2147.4914    
    687000   306.43095     -3.796976       0              60.330496      2096.9209    
    688000   299.94087     -4.6926728      0              58.076606      2103.6546    
    689000   301.20474     -4.2620846      0              58.771686      2017.009     
    690000   308.59223     -4.2501218      0              60.329645      2166.7649    
    691000   295.41692     -4.2687279      0              57.553813      2177.5701    
    692000   301.90526     -3.0595091      0              60.12086       2207.126     
    693000   296.34846     -3.6028372      0              58.414649      2185.6991    
    694000   302.42594     -4.8416416      0              58.447693      2130.362     
    695000   293.60205     -4.0545172      0              57.388222      2101.6395    
    696000   312.14762     -4.361137       0              60.962674      2187.6219    
    697000   296.50254     -5.2801376      0              56.769594      1968.6324    
    698000   308.69224     -4.7019673      0              59.89873       2140.7785    
    699000   308.51208     -5.4042001      0              59.158793      2196.5662    
    700000   307.38097     -5.5464814      0              58.779803      1993.9554    
    701000   301.8039      -3.5958291      0              59.56333       2070.8065    
    702000   291.95242     -4.8192555      0              56.278262      2089.0437    
    703000   299.41868     -5.354915       0              57.305083      2094.7556    
    704000   303.24899     -4.9523393      0              58.509236      2160.6021    
    705000   296.24257     -4.7833679      0              57.211959      2161.1841    
    706000   299.86751     -5.1990562      0              57.554869      2085.4362    
    707000   298.68006     -4.4823785      0              58.023048      2116.3011    
    708000   294.66698     -4.8551112      0              56.810489      2121.0927    
    709000   306.026       -3.6680876      0              60.374639      2137.1676    
    710000   298.13272     -4.8434052      0              57.547477      2049.506     
    711000   308.3426      -6.0277939      0              58.499733      2016.9963    
    712000   302.74078     -5.2961792      0              58.059041      2000.7388    
    713000   309.32838     -5.1432201      0              59.590602      2070.4749    
    714000   294.22149     -3.211457       0              58.360914      2171.7778    
    715000   295.4665      -3.4637418      0              58.369175      2168.8482    
    716000   297.44076     -5.338982       0              56.907093      2058.4148    
    717000   298.90349     -6.1533545      0              56.398829      2091.4386    
    718000   292.46775     -5.2334753      0              55.971886      2088.4786    
    719000   300.41733     -4.1458129      0              58.723175      2137.6387    
    720000   308.75715     -3.3689597      0              61.245321      2173.2398    
    721000   296.96499     -3.8928072      0              58.253702      2149.77      
    722000   298.0602      -3.6211898      0              58.754515      2271.1981    
    723000   305.34177     -5.6542254      0              58.245311      2062.6696    
    724000   302.65639     -5.5990005      0              57.738561      2011.0541    
    725000   308.47989     -4.7977833      0              59.758474      2088.7146    
    726000   300.56019     -4.0929918      0              58.805892      2104.3345    
    727000   299.03599     -4.9482042      0              57.631708      2054.9316    
    728000   297.02069     -4.1615029      0              57.996662      2185.184     
    729000   302.42336     -3.5074652      0              59.78133       2094.3397    
    730000   298.62539     -5.9208718      0              56.573112      1954.259     
    731000   293.42164     -5.877889       0              55.527095      2037.758     
    732000   299.51794     -5.631001       0              57.049769      2067.616     
    733000   295.90601     -5.628625       0              56.29627       1966.5734    
    734000   296.8553      -4.9557892      0              57.167765      2226.4216    
    735000   305.17105     -2.6915264      0              61.172284      2200.4439    
    736000   297.53372     -3.424998       0              58.840531      2145.3       
    737000   306.25582     -5.4319377      0              58.658885      2148.4477    
    738000   302.93656     -3.8230269      0              59.573166      2146.6806    
    739000   306.81816     -3.4812599      0              60.727244      2121.9635    
    740000   295.71436     -4.4616058      0              57.423181      2042.7108    
    741000   297.7666      -3.9173709      0              58.396894      1990.0777    
    742000   292.13062     -3.0465074      0              58.088302      2028.6912    
    743000   296.97231     -3.9311556      0              58.216886      2144.2386    
    744000   298.11786     -4.6378585      0              57.749914      2099.4278    
    745000   297.51356     -4.8251894      0              57.43612       2098.349     
    746000   298.99939     -4.130329       0              58.441924      2143.7132    
    747000   300.37768     -4.2599465      0              58.600743      2146.141     
    748000   301.17442     -4.9970788      0              58.030348      2045.8125    
    749000   305.09038     -6.2402053      0              57.606721      2001.6549    
    750000   298.71764     -4.669296       0              57.843995      2065.1765    
    751000   301.04962     -5.1497326      0              57.851576      2076.4993    
    752000   295.79366     -5.4882401      0              56.413143      2068.2237    
    753000   309.63229     -4.9027707      0              59.894653      2124.634     
    754000   296.83552     -3.2633854      0              58.856029      2094.5712    
    755000   301.62205     -4.0908388      0              59.030264      2107.7674    
    756000   303.96091     -5.1663269      0              58.444233      2134.2485    
    757000   305.21727     -4.0358943      0              59.837588      2040.3156    
    758000   304.18476     -3.5004994      0              60.156908      2214.9717    
    759000   306.06201     -6.1321443      0              57.918117      2066.9304    
    760000   296.81305     -3.4216382      0              58.693075      2110.4489    
    761000   302.80324     -3.5845803      0              59.783713      2210.2575    
    762000   296.06185     -4.1000995      0              57.857408      2012.4587    
    763000   293.6113      -3.5959148      0              57.84876       2106.8588    
    764000   309.1844      -5.7398509      0              58.96384       2019.1319    
    765000   297.70843     -4.3711817      0              57.930909      1973.3255    
    766000   293.92729     -4.5342049      0              56.976599      2143.7033    
    767000   301.62775     -5.3679681      0              57.754327      2108.7583    
    768000   296.28912     -4.8836271      0              57.121441      2099.8773    
    769000   302.16287     -3.3965657      0              59.837715      2119.8055    
    770000   306.85278     -4.0960186      0              60.11973       2154.7622    
    771000   310.24224     -3.209665       0              61.715404      2237.0084    
    772000   306.09008     -5.4785074      0              58.577629      2096.0547    
    773000   301.07128     -2.1964107      0              60.809431      2117.0853    
    774000   301.30323     -4.853262       0              58.20112       2135.0971    
    775000   303.24818     -5.6843278      0              57.777079      1989.2956    
    776000   294.01443     -5.7659138      0              55.763126      2077.6298    
    777000   311.57763     -5.8626569      0              59.341871      2045.4925    
    778000   306.83358     -4.4365469      0              59.775184      2038.9338    
    779000   302.34761     -3.3899768      0              59.882966      2148.7199    
    780000   290.80568     -4.6280094      0              56.229527      2049.5383    
    781000   304.69337     -4.6563486      0              59.107495      2119.221     
    782000   293.82945     -4.2269445      0              57.263383      2154.3208    
    783000   288.28411     -4.5423365      0              55.787506      2113.9277    
    784000   304.07996     -5.9812289      0              57.654245      2053.9292    
    785000   302.24758     -3.8265888      0              59.425419      2162.6094    
    786000   306.92682     -3.193101       0              61.038142      2183.7509    
    787000   305.37819     -4.3000581      0              59.6071        2098.7249    
    788000   304.32788     -3.2674803      0              60.419877      2132.5017    
    789000   297.28279     -4.9277732      0              57.285243      2173.1527    
    790000   294.70674     -5.6084627      0              56.065458      2148.7333    
    791000   300.42797     -4.2820014      0              58.589213      2162.8144    
    792000   302.56839     -6.0957834      0              57.223361      2090.8134    
    793000   308.64168     -5.0522761      0              59.537839      2177.5758    
    794000   301.11582     -5.7299247      0              57.285239      2025.5413    
    795000   298.09443     -4.6508533      0              57.732016      2120.9229    
    796000   300.18203     -3.8918037      0              58.927942      2179.6262    
    797000   300.11137     -4.4683151      0              58.336643      2043.7875    
    798000   294.43774     -5.4010346      0              56.216591      2106.2421    
    799000   310.33157     -4.3717064      0              60.572057      2128.3393    
    800000   299.37263     -5.9598738      0              56.690487      2119.5811    
    801000   299.23686     -5.3905304      0              57.231419      2026.2941    
    802000   285.62277     -4.493963       0              55.278936      2122.3625    
    803000   313.26097     -4.9427282      0              60.614077      2036.0909    
    804000   295.55568     -3.7345378      0              58.117043      2119.0276    
    805000   303.08733     -4.2614125      0              59.166331      2114.6189    
    806000   297.00721     -4.0046055      0              58.15074       2035.3252    
    807000   308.83664     -5.5292461      0              59.101669      2055.465     
    808000   309.58413     -3.2672789      0              61.520065      2221.6607    
    809000   291.88762     -3.7964651      0              57.287492      2169.2385    
    810000   299.42627     -4.2863611      0              58.375225      2132.6817    
    811000   303.69545     -6.4958632      0              57.059145      2119.9774    
    812000   295.10377     -5.4723118      0              56.284697      2040.753     
    813000   296.54985     -5.560006       0              56.499626      2091.8858    
    814000   299.28262     -5.0305122      0              57.601013      2077.1723    
    815000   295.61766     -4.8991871      0              56.965363      2057.0915    
    816000   292.53068     -4.1024623      0              57.11607       2036.5796    
    817000   308.548       -2.978621       0              61.591889      2014.1988    
    818000   298.54468     -3.5110011      0              58.966094      2142.7167    
    819000   310.06607     -3.7399113      0              61.14829       2107.3763    
    820000   293.44554     -4.9612387      0              56.448747      2016.4887    
    821000   293.82548     -4.8129148      0              56.676583      2042.2737    
    822000   297.32961     -5.0709604      0              57.151854      2055.7443    
    823000   298.12049     -3.9680213      0              58.420302      2069.701     
    824000   293.79704     -4.225239       0              57.258307      2187.979     
    825000   293.0253      -5.7751526      0              55.54689       1994.9047    
    826000   297.77156     -5.6705311      0              56.64477       2122.5504    
    827000   292.62001     -3.9680763      0              57.26915       2132.6877    
    828000   305.02408     -4.3725705      0              59.460483      2076.4047    
    829000   307.66798     -4.742357       0              59.64399       2078.2015    
    830000   297.58178     -4.7790576      0              57.496528      2046.11      
    831000   300.15709     -4.8472006      0              57.967327      2088.8567    
    832000   296.89057     -5.5303662      0              56.60057       2158.3889    
    833000   301.14284     -5.4520323      0              57.568785      2077.1353    
    834000   306.10571     -5.6243907      0              58.435017      2054.5607    
    835000   297.58833     -4.6318252      0              57.645133      2115.7626    
    836000   295.27802     -4.6329362      0              57.160536      2094.8037    
    837000   303.57448     -5.1535622      0              58.37613       2074.2018    
    838000   300.32737     -4.8119884      0              58.038174      2117.1132    
    839000   300.01114     -5.2107032      0              57.573281      2119.2298    
    840000   306.44184     -5.3286519      0              58.801099      2138.9341    
    841000   305.58136     -6.2799954      0              57.669681      2089.4331    
    842000   298.45447     -6.6276204      0              55.830595      1964.3645    
    843000   300.62165     -5.8453376      0              57.066408      1977.6936    
    844000   303.299       -4.994318       0              58.477724      2032.7259    
    845000   306.09693     -5.5846401      0              58.472929      2099.8676    
    846000   306.60547     -6.1026924      0              58.061301      1976.617     
[...]
   1814000   290.49843     -3.8587086      0              56.934529      2122.5622    
   1815000   298.43614     -6.6067293      0              55.847651      1988.1962    
   1816000   301.08419     -4.6034736      0              58.405069      1961.7357    
   1817000   298.65441     -4.4943392      0              58.005718      2162.9638    
   1818000   291.18827     -4.4107504      0              56.526852      1994.5495    
   1819000   305.22342     -5.2054222      0              58.669346      2192.8531    
   1820000   297.89867     -4.6551926      0              57.686711      2013.568     
   1821000   302.24768     -4.5910016      0              58.661027      2101.2883    
   1822000   300.18425     -5.9045818      0              56.915629      1961.4847    
   1823000   295.04313     -5.1972474      0              56.547071      2020.9502    
   1824000   316.05494     -4.0468984      0              62.094607      2181.0443    
   1825000   294.88353     -3.8238889      0              57.887028      2087.1091    
   1826000   289.50308     -2.7340725      0              57.850866      2137.2283    
   1827000   298.05562     -6.305919       0              56.068829      2079.5981    
   1828000   295.79692     -5.6803217      0              56.221743      2070.8165    
   1829000   299.88845     -4.8063924      0              57.951916      2137.7078    
   1830000   304.36781     -5.2405484      0              58.455165      2140.0316    
   1831000   289.51654     -4.4975839      0              56.090172      2055.0719    
   1832000   301.74671     -5.4268742      0              57.720316      2085.272     
   1833000   294.68571     -4.6306537      0              57.038866      2057.4957    
   1834000   302.79284     -4.5275409      0              58.838574      2227.1141    
   1835000   302.7577      -5.2002905      0              58.158473      2033.7488    
   1836000   301.11776     -4.6157131      0              58.399854      2095.6709    
   1837000   296.4093      -3.4871779      0              58.543041      2130.3715    
   1838000   296.3898      -2.9960061      0              59.030131      2015.6595    
   1839000   288.44585     -2.8503237      0              57.513366      2127.9593    
   1840000   307.45487     -3.3923291      0              60.94942       2251.0436    
   1841000   296.85713     -3.7619974      0              58.361939      2208.9862    
   1842000   296.84208     -3.0576528      0              59.063134      2067.8798    
   1843000   305.12351     -3.7904974      0              60.063364      2233.4763    
   1844000   299.07844     -3.1810886      0              59.407706      2157.6478    
   1845000   304.87307     -3.6098498      0              60.1916        2090.4779    
   1846000   298.01535     -5.1204485      0              57.245871      2019.3411    
   1847000   294.72872     -4.6200611      0              57.058459      2096.9338    
   1848000   295.20536     -4.6942866      0              57.083981      2065.8348    
   1849000   295.52634     -4.4480594      0              57.397381      2093.1589    
   1850000   292.37232     -3.4305477      0              57.754843      2131.3665    
   1851000   300.63098     -5.5663808      0              57.347317      2005.9422    
   1852000   299.92        -4.2586407      0              58.50627       2136.8384    
   1853000   311.6234      -3.1627197      0              62.051387      2204.3757    
   1854000   300.1281      -5.1774286      0              57.631032      2059.1351    
   1855000   310.01464     -4.304165       0              60.573273      2037.5935    
   1856000   294.76192     -4.2717866      0              57.41368       2012.7612    
   1857000   296.03665     -4.7833186      0              57.168914      2045.9695    
   1858000   305.85414     -4.0566861      0              59.950075      2119.0952    
   1859000   302.40976     -4.4583429      0              58.827605      2134.5338    
   1860000   296.75408     -4.1808305      0              57.921541      2069.4119    
   1861000   299.70127     -4.1619085      0              58.557228      2174.6638    
   1862000   286.31778     -4.8451486      0              55.073196      1916.5362    
   1863000   306.82198     -5.048179       0              59.161123      2187.2238    
   1864000   301.4682      -3.8250347      0              59.263872      2131.8819    
   1865000   297.11131     -7.400345       0              54.776785      1949.2235    
   1866000   293.63408     -5.141219       0              56.308224      2033.4096    
   1867000   312.11529     -5.6478845      0              59.66916       2081.5321    
   1868000   305.37996     -4.5504558      0              59.357074      2107.5161    
   1869000   300.39427     -4.7212634      0              58.142898      2045.0479    
   1870000   299.74753     -5.3048312      0              57.423986      1984.3227    
   1871000   302.18478     -3.8751975      0              59.363669      2119.497     
   1872000   310.47281     -4.2661611      0              60.707159      2236.1761    
   1873000   292.72593     -3.8056158      0              57.453777      2117.846     
   1874000   301.69471     -4.3698646      0              58.766444      2200.6744    
   1875000   301.89721     -4.9008708      0              58.277815      2070.1535    
   1876000   299.06475     -4.7810299      0              57.804901      2034.5042    
   1877000   293.72467     -4.5283055      0              56.940096      2140.3673    
   1878000   297.29539     -5.9306384      0              56.285015      2020.5331    
   1879000   297.0575      -5.7598424      0              56.406027      2066.3661    
   1880000   311.02285     -3.0819095      0              62.006518      2171.0811    
   1881000   307.00791     -3.3423612      0              60.905851      2065.4047    
   1882000   302.18907     -3.8045436      0              59.435221      2157.8205    
   1883000   300.28076     -3.8332608      0              59.007147      2154.0359    
   1884000   301.34454     -4.6520256      0              58.411001      2083.5834    
   1885000   292.1875      -5.2525637      0              55.89415       2051.4917    
   1886000   306.51675     -4.3897705      0              59.755657      2126.9489    
   1887000   305.57762     -2.8255368      0              61.123357      2145.0551    
   1888000   292.44186     -4.022514       0              57.177429      2076.0488    
   1889000   301.17769     -4.1351699      0              58.89294       2133.8159    
   1890000   296.97452     -3.8725438      0              58.27596       2098.808     
   1891000   302.03723     -4.6528804      0              58.555108      2092.566     
   1892000   305.87337     -5.3797177      0              58.631068      2082.9949    
   1893000   297.37732     -3.2043923      0              59.028406      2132.0153    
   1894000   300.78709     -3.2819174      0              59.664451      2173.786     
   1895000   299.50915     -4.4464623      0              58.232469      2188.7783    
   1896000   291.94236     -4.3242773      0              56.771135      2100.4443    
   1897000   300.85611     -1.7390844      0              61.221729      2232.9418    
   1898000   297.84499     -4.6941212      0              57.636548      2121.7945    
   1899000   293.04092     -3.9645496      0              57.36076       2146.6235    
   1900000   300.79621     -4.3862698      0              58.562008      2207.392     
   1901000   299.75989     -4.6009959      0              58.130408      2066.8017    
   1902000   287.33069     -4.6403419      0              55.489977      2081.7761    
   1903000   299.83638     -5.134591       0              57.61282       1994.6297    
   1904000   300.86612     -4.948764       0              58.014144      2046.5801    
   1905000   295.96751     -3.27583        0              58.661935      2234.3965    
   1906000   297.30064     -5.1597779      0              57.056973      2089.1829    
   1907000   293.15422     -5.2778068      0              56.071215      2073.4793    
   1908000   302.35436     -4.5196351      0              58.75472       2112.7143    
   1909000   292.30375     -3.8487269      0              57.322314      2215.6497    
   1910000   299.33703     -3.1133632      0              59.529547      2098.0126    
   1911000   303.10445     -4.638732       0              58.792595      2059.5831    
   1912000   295.47619     -2.8700227      0              58.964922      2012.5497    
   1913000   302.05569     -6.3278913      0              56.883961      1983.5806    
   1914000   307.52197     -3.4283848      0              60.927407      2176.2706    
   1915000   305.3258      -4.8608216      0              59.035374      2056.2516    
   1916000   305.3618      -3.5838494      0              60.319879      2174.4097    
   1917000   294.09767     -4.9090017      0              56.637458      1989.7389    
   1918000   294.82039     -3.7373756      0              57.960328      2203.3173    
   1919000   300.00957     -3.4704391      0              59.313217      2219.3371    
   1920000   297.02963     -3.8321488      0              58.327889      2058.3833    
   1921000   309.5812      -2.9858273      0              61.800903      2145.9688    
   1922000   300.10116     -5.8520498      0              56.950773      2048.0942    
   1923000   300.89898     -4.433198       0              58.536586      2084.251     
   1924000   304.71936     -5.2982605      0              58.471022      2122.591     
   1925000   304.7953      -4.529934       0              59.255241      2099.961     
   1926000   308.72724     -4.0297441      0              60.578278      2130.5868    
   1927000   307.37931     -4.5380505      0              59.787886      2110.8012    
   1928000   291.64082     -4.4751298      0              56.55718       2192.0678    
   1929000   305.4439      -6.2287689      0              57.692139      2025.2592    
   1930000   297.15655     -6.163359       0              56.023239      2026.5627    
   1931000   301.64038     -4.1812519      0              58.943686      2146.3985    
   1932000   301.24737     -3.8656383      0              59.177054      2060.1438    
   1933000   305.23451     -4.5357894      0              59.341301      2067.675     
   1934000   291.32729     -3.9229022      0              57.043794      2023.537     
   1935000   292.27345     -4.4026974      0              56.762003      2145.885     
   1936000   295.06696     -3.8189192      0              57.930384      2168.6247    
   1937000   301.71171     -5.069422       0              58.070444      2020.9966    
   1938000   297.75851     -5.8487265      0              56.463844      2040.9321    
   1939000   297.80449     -3.852322       0              58.469871      2099.7338    
   1940000   299.40245     -3.7506677      0              58.905934      2090.7099    
   1941000   296.62423     -4.559799       0              57.515398      2081.1014    
   1942000   288.58419     -5.053764       0              55.338877      2052.9504    
   1943000   305.13172     -3.8268426      0              60.028737      2185.3203    
   1944000   306.4637      -4.516235       0              59.618089      2009.7289    
   1945000   296.47533     -5.9505716      0              56.093465      2054.9247    
   1946000   298.25652     -4.6942442      0              57.722547      2148.3593    
   1947000   298.75641     -3.9462857      0              58.575117      2052.6569    
   1948000   312.98817     -3.7302998      0              61.769415      2140.5197    
   1949000   308.32568     -3.3850684      0              61.138917      2149.499     
   1950000   301.35586     -4.2137381      0              58.851657      2140.7823    
   1951000   298.57157     -5.2963842      0              57.186337      2060.0437    
   1952000   303.1164      -3.8834772      0              59.550351      2130.4089    
   1953000   297.36426     -5.1813801      0              57.048686      2045.0024    
   1954000   291.76079     -3.640964       0              57.416452      2116.0918    
   1955000   301.04839     -3.6713308      0              59.329721      2121.3397    
   1956000   303.80489     -4.4985361      0              59.079374      2117.4699    
   1957000   306.3628      -4.7271448      0              59.386065      2100.3496    
   1958000   303.76375     -4.7483428      0              58.820958      2087.7217    
   1959000   309.78383     -5.6173485      0              59.211786      2118.2317    
   1960000   301.48851     -4.3106321      0              58.782525      2163.3197    
   1961000   291.06623     -7.4158839      0              53.49618       1953.2822    
   1962000   303.68726     -5.6664826      0              57.886812      2048.4574    
   1963000   297.91241     -4.8949354      0              57.449843      2052.5326    
   1964000   298.84212     -4.0321852      0              58.507155      2150.0449    
   1965000   297.39428     -5.5747397      0              56.661607      2083.8419    
   1966000   293.29993     -3.2913574      0              58.088157      2119.3183    
   1967000   298.27132     -5.2324162      0              57.187472      2078.4101    
   1968000   300.0331      -3.7945191      0              58.99406       2170.1256    
   1969000   303.94199     -4.2244567      0              59.382144      2124.6964    
   1970000   298.89627     -3.765956       0              58.784716      2133.2456    
   1971000   298.41585     -5.2509286      0              57.199205      2044.0096    
   1972000   297.95526     -6.0627717      0              56.290973      2088.3007    
   1973000   295.42899     -4.7481599      0              57.076907      2081.1298    
   1974000   300.80822     -3.9388927      0              59.011898      2035.9848    
   1975000   302.28049     -1.9820381      0              61.276858      2230.3277    
   1976000   288.19332     -4.1787528      0              56.13209       2117.9719    
   1977000   289.47053     -3.500717       0              57.077409      2058.3217    
   1978000   295.60339     -5.3112423      0              56.550323      2137.7248    
   1979000   301.23702     -5.6264714      0              57.414055      2040.7521    
   1980000   300.43283     -3.961108       0              58.911123      2198.6234    
   1981000   297.08606     -5.3030622      0              56.868783      2196.2329    
   1982000   310.85083     -5.7003143      0              59.352114      2026.5731    
   1983000   303.86208     -6.5421263      0              57.047751      2056.7743    
   1984000   299.60407     -5.6963206      0              57.002475      2110.4712    
   1985000   296.13075     -5.5126425      0              56.459283      2187.121     
   1986000   307.98281     -3.5743889      0              60.877844      2073.4629    
   1987000   301.28992     -4.0533265      0              58.998271      2212.6472    
   1988000   301.81034     -4.7936846      0              58.366822      2121.9688    
   1989000   307.42351     -6.402362       0              57.932824      2062.2874    
   1990000   303.98163     -5.3326715      0              58.282224      2017.2192    
   1991000   306.03849     -2.8345274      0              61.210813      2231.7717    
   1992000   296.10488     -2.878414       0              59.088098      2109.3991    
   1993000   295.8189      -4.5333182      0              57.373347      2098.7989    
   1994000   299.39613     -4.9786693      0              57.676609      2112.3747    
   1995000   298.20531     -4.2966789      0              58.109394      2181.3088    
   1996000   301.60033     -3.4887259      0              59.627831      2071.2504    
   1997000   302.96822     -4.6991444      0              58.703674      2111.693     
   1998000   306.02748     -4.2198119      0              59.823223      2112.6595    
   1999000   290.51832     -5.5262514      0              55.27115       1961.0831    
   2000000   306.76211     -5.2896708      0              58.907103      2127.8482    
   2000101   297.12316     -4.7717626      0              57.407847      2116.3333    
Loop time of 14103.6 on 16 procs for 2000000 steps with 1620 atoms

Performance: 6.126 ns/day, 3.918 hours/ns, 141.808 timesteps/s
99.9% CPU use with 16 MPI tasks x 1 OpenMP threads

MPI task timing breakdown:
Section |  min time  |  avg time  |  max time  |%varavg| %total
---------------------------------------------------------------
Pair    | 11069      | 11973      | 12973      | 631.4 | 84.90
Bond    | 1.542      | 1.6018     | 1.6808     |   3.4 |  0.01
Neigh   | 16.195     | 16.787     | 17.374     |  11.4 |  0.12
Comm    | 1057.2     | 2057.1     | 2961.4     |1523.7 | 14.59
Output  | 1.1663     | 1.167      | 1.1693     |   0.1 |  0.01
Modify  | 28.509     | 28.957     | 29.566     |   5.8 |  0.21
Other   |            | 24.76      |            |       |  0.18

Nlocal:         101.25 ave         105 max          97 min
Histogram: 2 2 1 1 0 1 3 3 0 3
Nghost:        5068.56 ave        5102 max        5028 min
Histogram: 1 1 2 1 2 2 1 2 1 3
Neighs:        51649.8 ave       56456 max       46528 min
Histogram: 1 2 2 3 0 1 1 1 4 1

Total # of neighbors = 826397
Ave neighs/atom = 510.1216
Ave special neighs/atom = 0
Neighbor list builds = 10420
Dangerous builds = 0
comm_modify cutoff 27.58
compute myRDF all rdf 1129 cutoff 22.58
fix 2 all ave/time 1 1 1 c_myRDF[*] file ljg2_nvt_47rdf.rdf mode vector
run 0 pre yes post no
Generated 0 of 0 mixed pair_coeff terms from geometric mixing rule
WARNING: Compute rdf cutoff less than neighbor cutoff - forcing a needless neighbor list build (src/compute_rdf.cpp:179)
Neighbor list info ...
  update every 1 steps, delay 0 steps, check yes
  max neighbors/atom: 200000, page size: 2000000000
  master list distance cutoff = 27
  ghost atom cutoff = 27.58
  binsize = 13.5, bins = 4 5 4
  4 neighbor lists, perpetual/occasional/extra = 3 1 0
  (1) pair lj/cut, perpetual
      attributes: half, newton on
      pair build: half/bin/newton
      stencil: half/bin/3d
      bin: standard
  (2) pair gauss/cut, perpetual, copy from (1)
      attributes: half, newton on
      pair build: copy
      stencil: none
      bin: none
  (3) pair gauss/cut, perpetual, copy from (1)
      attributes: half, newton on
      pair build: copy
      stencil: none
      bin: none
  (4) compute rdf, occasional
      attributes: half, newton on, cut 24.58
      pair build: half/bin/newton
      stencil: half/bin/3d
      bin: standard
Per MPI rank memory allocation (min/avg/max) = 3.053e+04 | 3.053e+04 | 3.053e+04 Mbytes
   Step          Temp          E_pair         E_mol          TotEng         Press     
   2000101   297.12316     -4.7717626      0              57.407847      2116.3333    
Loop time of 4.66713e-06 on 16 procs for 0 steps with 1620 atoms

uncompute myRDF
unfix 2
write_data ljg2_nvt_47/ca_md.data nocoeff nofix
System init for write_data ...
Generated 0 of 0 mixed pair_coeff terms from geometric mixing rule
Neighbor list info ...
  update every 1 steps, delay 0 steps, check yes
  max neighbors/atom: 200000, page size: 2000000000
  master list distance cutoff = 27
  ghost atom cutoff = 27.58
  binsize = 13.5, bins = 4 5 4
  3 neighbor lists, perpetual/occasional/extra = 3 0 0
  (1) pair lj/cut, perpetual
      attributes: half, newton on
      pair build: half/bin/newton
      stencil: half/bin/3d
      bin: standard
  (2) pair gauss/cut, perpetual, copy from (1)
      attributes: half, newton on
      pair build: copy
      stencil: none
      bin: none
  (3) pair gauss/cut, perpetual, copy from (1)
      attributes: half, newton on
      pair build: copy
      stencil: none
      bin: none
Total wall time: 3:55:05
