region box block 0 52.794504272175 0 54.794296100667 0 45.195295323908
units metal
dimension 3
boundary p p p
atom_style full
create_box 1 box
Created orthogonal box = (0 0 0) to (52.794504 54.794296 45.195295)
  2 by 4 by 2 MPI processor grid
create_atoms 1 random 1620 41 box
Created 1620 atoms
  using lattice units in orthogonal box = (0 0 0) to (52.794504 54.794296 45.195295)
  create_atoms CPU = 0.003 seconds
mass 1 40.078
pair_style hybrid/overlay lj/cut 25 gauss/cut 25 gauss/cut 25
pair_coeff 1 1 lj/cut 0.009507177838705264 3.7584971993521488
pair_coeff 1 1 gauss/cut 1 -0.0597999248039827 5.991246456844763 0.601172550524922
pair_coeff 1 1 gauss/cut 2 0.0726183915985775 5.919659952808235 0.9307156951487607
run 1
WARNING: No fixes with time integration, atoms won't move (src/verlet.cpp:60)
Generated 0 of 0 mixed pair_coeff terms from geometric mixing rule
Neighbor list info ...
  update every 1 steps, delay 10 steps, check yes
  max neighbors/atom: 2000, page size: 100000
  master list distance cutoff = 27
  ghost atom cutoff = 27
  binsize = 13.5, bins = 4 5 4
  3 neighbor lists, perpetual/occasional/extra = 3 0 0
  (1) pair lj/cut, perpetual
      attributes: half, newton on
      pair build: half/bin/newton
      stencil: half/bin/3d
      bin: standard
  (2) pair gauss/cut, perpetual, copy from (1)
      attributes: half, newton on
      pair build: copy
      stencil: none
      bin: none
  (3) pair gauss/cut, perpetual, copy from (1)
      attributes: half, newton on
      pair build: copy
      stencil: none
      bin: none
Per MPI rank memory allocation (min/avg/max) = 6.99 | 6.997 | 7.002 Mbytes
   Step          Temp          E_pair         E_mol          TotEng         Press     
         0   0              1.9702622e+11  0              1.9702622e+11  9.6577793e+12
         1   0              1.9702622e+11  0              1.9702622e+11  9.6577793e+12
Loop time of 0.011621 on 16 procs for 1 steps with 1620 atoms

Performance: 7.435 ns/day, 3.228 hours/ns, 86.051 timesteps/s
99.9% CPU use with 16 MPI tasks x 1 OpenMP threads

MPI task timing breakdown:
Section |  min time  |  avg time  |  max time  |%varavg| %total
---------------------------------------------------------------
Pair    | 0.0073223  | 0.0093646  | 0.01124    |   1.1 | 80.58
Bond    | 8.47e-07   | 1.0542e-06 | 1.301e-06  |   0.0 |  0.01
Neigh   | 0          | 0          | 0          |   0.0 |  0.00
Comm    | 0.00029345 | 0.0021638  | 0.004198   |   2.4 | 18.62
Output  | 4.8888e-05 | 5.2566e-05 | 5.5551e-05 |   0.0 |  0.45
Modify  | 1.324e-06  | 1.7621e-06 | 2.398e-06  |   0.0 |  0.02
Other   |            | 3.723e-05  |            |       |  0.32

Nlocal:         101.25 ave         116 max          77 min
Histogram: 1 0 1 1 1 2 3 4 0 3
Nghost:        5056.31 ave        5143 max        4951 min
Histogram: 2 0 1 1 2 3 2 2 2 1
Neighs:        51684.9 ave       60992 max       40980 min
Histogram: 1 1 2 2 1 2 1 3 1 2

Total # of neighbors = 826958
Ave neighs/atom = 510.4679
Ave special neighs/atom = 0
Neighbor list builds = 0
Dangerous builds = 0
thermo 1000
neighbor 2.0 bin
neigh_modify every 1 delay 0 check yes one 200000 page 2000000000
minimize 0.0 1.0e-8 100 1000
Generated 0 of 0 mixed pair_coeff terms from geometric mixing rule
Neighbor list info ...
  update every 1 steps, delay 0 steps, check yes
  max neighbors/atom: 200000, page size: 2000000000
  master list distance cutoff = 27
  ghost atom cutoff = 27
  binsize = 13.5, bins = 4 5 4
  3 neighbor lists, perpetual/occasional/extra = 3 0 0
  (1) pair lj/cut, perpetual
      attributes: half, newton on
      pair build: half/bin/newton
      stencil: half/bin/3d
      bin: standard
  (2) pair gauss/cut, perpetual, copy from (1)
      attributes: half, newton on
      pair build: copy
      stencil: none
      bin: none
  (3) pair gauss/cut, perpetual, copy from (1)
      attributes: half, newton on
      pair build: copy
      stencil: none
      bin: none
Per MPI rank memory allocation (min/avg/max) = 2.29e+04 | 2.29e+04 | 2.29e+04 Mbytes
   Step          Temp          E_pair         E_mol          TotEng         Press     
         1   0              1.9702622e+11  0              1.9702622e+11  9.6577793e+12
       101   0             -51.208283      0             -51.208283      739.71445    
Loop time of 1.09578 on 16 procs for 100 steps with 1620 atoms

99.8% CPU use with 16 MPI tasks x 1 OpenMP threads

Minimization stats:
  Stopping criterion = max iterations
  Energy initial, next-to-last, final = 
      197026224184.411   -51.008882923161  -51.2082833667082
  Force two-norm initial, final = 7.143034e+12 0.42969914
  Force max component initial, final = 2.8234032e+12 0.072525656
  Final line search alpha, max atom move = 1 0.072525656
  Iterations, force evaluations = 100 115

MPI task timing breakdown:
Section |  min time  |  avg time  |  max time  |%varavg| %total
---------------------------------------------------------------
Pair    | 0.72884    | 0.89034    | 1.0264     |   9.1 | 81.25
Bond    | 9.4855e-05 | 0.00010186 | 0.0001074  |   0.0 |  0.01
Neigh   | 0.010126   | 0.011952   | 0.013265   |   0.8 |  1.09
Comm    | 0.05153    | 0.1885     | 0.35145    |  20.0 | 17.20
Output  | 5.1231e-05 | 5.3262e-05 | 5.6232e-05 |   0.0 |  0.00
Modify  | 0          | 0          | 0          |   0.0 |  0.00
Other   |            | 0.004835   |            |       |  0.44

Nlocal:         101.25 ave         115 max          88 min
Histogram: 3 0 1 2 2 1 3 2 1 1
Nghost:        5081.06 ave        5183 max        4993 min
Histogram: 2 0 3 1 1 5 1 1 1 1
Neighs:        51696.4 ave       58931 max       45697 min
Histogram: 3 2 1 2 1 0 4 1 0 2

Total # of neighbors = 827142
Ave neighs/atom = 510.58148
Ave special neighs/atom = 0
Neighbor list builds = 7
Dangerous builds = 0
timestep 0.0005
fix 1 all nvt temp 300.0 300.0 $(100.0*dt)
fix 1 all nvt temp 300.0 300.0 0.050000000000000002776
fix removeMomentum all momentum 1 linear 1 1 1
dump 1 all custom 1000 ljg2_nvt_41/ca.traj id mol type mass x y z
dump_modify 1 sort id
run 2000000
Generated 0 of 0 mixed pair_coeff terms from geometric mixing rule
Per MPI rank memory allocation (min/avg/max) = 2.289e+04 | 2.289e+04 | 2.289e+04 Mbytes
   Step          Temp          E_pair         E_mol          TotEng         Press     
       101   0             -51.208283      0             -51.208283      739.71445    
      1000   146.64423     -47.956552      0             -17.267994      1178.6572    
      2000   292.76745     -12.590942      0              48.677139      1795.6689    
      3000   295.80623     -7.2384083      0              54.665604      1963.7202    
      4000   306.80531     -6.5306902      0              57.675124      2021.3667    
      5000   293.85889     -4.9926057      0              56.503882      2119.3432    
      6000   302.88309     -6.2594443      0              57.125558      2014.6894    
      7000   307.20595     -5.0515703      0              59.238088      2019.0911    
      8000   295.39601     -5.7837423      0              56.034423      2052.7491    
      9000   298.2095      -4.5529622      0              57.853989      2080.4605    
     10000   304.55667     -4.8917769      0              58.84346       2150.0402    
     11000   310.79668     -2.900928       0              62.14017       2131.4433    
     12000   304.402       -4.8059961      0              58.896873      2196.9673    
     13000   302.67936     -4.2054429      0              59.136924      2065.3535    
     14000   304.29671     -3.9657618      0              59.715072      2132.7173    
     15000   296.69981     -4.7259511      0              57.365062      2195.3049    
     16000   295.70993     -2.7199506      0              59.163909      2154.0369    
     17000   309.35103     -7.1253042      0              57.613258      2006.4822    
     18000   302.25189     -4.4280052      0              58.824905      2132.1136    
     19000   297.10525     -5.1964272      0              56.979434      2131.5069    
     20000   305.62172     -3.1297724      0              60.828349      2281.7527    
     21000   295.63094     -4.7572953      0              57.110034      2018.9359    
     22000   297.76621     -4.9205362      0              57.393647      2133.2797    
     23000   306.48042     -4.8401218      0              59.297702      2072.4716    
     24000   297.7335      -3.4403493      0              58.866987      2119.7893    
     25000   300.64707     -3.6130164      0              59.304049      2185.7169    
     26000   304.24022     -5.4466997      0              58.222312      2036.2369    
     27000   309.6576      -2.8805448      0              61.922174      2212.6169    
     28000   288.90413     -3.8620696      0              56.597525      2067.195     
     29000   300.55479     -3.4415176      0              59.456237      2145.8366    
     30000   301.33174     -4.2564522      0              58.803896      2103.1953    
     31000   301.90696     -5.1950668      0              57.985659      2090.4145    
     32000   290.47375     -3.8131186      0              56.974955      2097.9391    
     33000   289.96306     -4.4848241      0              56.196375      2053.2338    
     34000   305.30272     -3.9173928      0              59.973971      2121.3713    
     35000   303.40859     -4.3022243      0              59.192751      2097.7468    
     36000   296.21583     -3.6800013      0              58.309731      2125.001     
     37000   299.71772     -5.1980252      0              57.524554      1994.4753    
     38000   294.61439     -6.183739       0              55.470856      1884.8208    
     39000   295.58186     -2.3402069      0              59.516852      2182.2513    
     40000   311.75946     -4.6955354      0              60.547046      2080.2685    
     41000   295.28722     -6.6690718      0              55.126326      1989.2819    
     42000   290.87592     -4.8485156      0              56.023721      2050.1658    
     43000   297.77262     -5.8751372      0              56.440387      2129.8063    
     44000   306.54921     -4.8855519      0              59.266669      2174.4018    
     45000   299.71331     -3.8251889      0              58.896466      2161.1469    
     46000   299.68052     -5.3813977      0              57.333397      2065.492     
     47000   301.72065     -4.5850748      0              58.556661      1907.5084    
     48000   302.67317     -3.3581715      0              59.982901      2182.5845    
     49000   305.16745     -5.5294007      0              58.333656      2127.9062    
     50000   298.57049     -5.3299065      0              57.15259       2074.1938    
     51000   301.94953     -4.6060244      0              58.583611      2085.5402    
     52000   305.70116     -5.8583707      0              58.116376      2030.4481    
     53000   318.11667     -6.1059439      0              60.467023      1991.3895    
     54000   297.99325     -5.2977543      0              57.063941      2173.1478    
     55000   295.85054     -2.3202426      0              59.593043      2188.723     
     56000   295.63582     -3.837251       0              58.031101      2014.2612    
     57000   294.47621     -4.4553215      0              57.170356      2053.6306    
     58000   289.72149     -4.271913       0              56.358733      2057.019     
     59000   298.24892     -5.4453186      0              56.969882      2116.5127    
     60000   294.33737     -3.6021602      0              57.994461      2072.9547    
     61000   305.8408      -4.6983047      0              59.305664      2115.5479    
     62000   302.73726     -4.5846758      0              58.769809      2080.4276    
     63000   299.78629     -5.5729864      0              57.163943      2035.1606    
     64000   307.30236     -3.8394024      0              60.47043       2195.0503    
     65000   298.08914     -6.3555842      0              56.026179      2100.3955    
     66000   302.27616     -3.8551994      0              59.402791      2239.6987    
     67000   304.76681     -4.3982739      0              59.380939      2114.8773    
     68000   295.8637      -3.1441257      0              58.771914      2192.2683    
     69000   297.19268     -2.7900113      0              59.404148      2105.6207    
     70000   294.31931     -3.5224765      0              58.070366      2061.4765    
     71000   296.72614     -3.7410547      0              58.355471      2195.4945    
     72000   301.22359     -5.7461705      0              57.291545      2088.1586    
     73000   298.73352     -4.1410928      0              58.375521      2158.9939    
     74000   296.98294     -3.1113145      0              59.038951      2038.1412    
     75000   300.02467     -3.9048202      0              58.881995      2038.8604    
     76000   307.21679     -4.7462154      0              59.545711      1963.1147    
     77000   300.29713     -6.0310576      0              56.812777      2081.9545    
     78000   305.33386     -4.4855837      0              59.412298      2092.7221    
     79000   294.52481     -4.4504489      0              57.1854        2098.4102    
     80000   300.77445     -3.8272974      0              59.116425      2091.6725    
     81000   302.81189     -5.1923811      0              58.177721      2002.3634    
     82000   310.27948     -2.7102465      0              62.222616      2194.584     
     83000   298.90609     -3.8538229      0              58.698905      2167.8891    
     84000   305.6304      -4.3099928      0              59.649946      2158.2825    
     85000   303.75308     -4.6081086      0              58.958958      2076.9429    
     86000   316.75241     -4.7495344      0              61.537931      2154.3072    
     87000   306.74846     -3.3721818      0              60.821735      2103.5075    
     88000   292.06503     -6.0482832      0              55.072801      2112.9875    
     89000   306.60694     -3.6735144      0              60.490787      2104.0024    
     90000   304.59022     -4.9860604      0              58.756196      2120.2187    
     91000   304.53248     -3.6762174      0              60.053957      2177.8914    
     92000   298.24205     -3.0958926      0              59.317869      2170.0435    
     93000   308.1614      -4.6027528      0              59.886853      2131.5301    
     94000   297.04889     -5.2068183      0              56.957248      2027.3809    
     95000   306.42509     -5.7659628      0              58.360282      2086.423     
     96000   298.55778     -6.138355       0              56.341482      2120.5058    
     97000   302.24867     -5.0387354      0              58.213502      2005.7779    
     98000   305.07098     -4.5731271      0              59.269739      2081.6782    
     99000   298.01725     -5.1137656      0              57.252952      2064.6421    
    100000   295.50908     -5.4918409      0              56.349986      2057.0943    
    101000   294.11077     -4.1482155      0              57.400985      2051.1175    
    102000   295.10146     -4.5892757      0              57.167248      2093.0366    
    103000   304.63617     -5.151553       0              58.600322      2039.943     
    104000   301.86465     -5.228578       0              57.943293      1983.0465    
    105000   301.32629     -4.7889832      0              58.270226      2180.2642    
    106000   287.6547      -4.5023058      0              55.695819      2200.2592    
    107000   288.83193     -4.7980399      0              55.646445      2125.4601    
    108000   294.66341     -4.9988544      0              56.665999      2028.3858    
    109000   301.82268     -4.2150332      0              58.948055      2086.2769    
    110000   306.98021     -5.3154223      0              58.926994      1966.2995    
    111000   302.19766     -4.9830528      0              58.258508      2052.5267    
    112000   300.47117     -4.6313684      0              58.248886      2109.7903    
    113000   299.31418     -5.1497228      0              57.488406      2094.1318    
    114000   316.12936     -4.5887979      0              61.56828       2143.1652    
    115000   294.55997     -3.793657       0              57.849549      2064.2372    
    116000   300.23982     -4.6352854      0              58.196555      2073.4892    
    117000   303.40337     -4.5997488      0              58.894134      2132.107     
    118000   301.15138     -4.8380748      0              58.184529      2151.0864    
    119000   299.92451     -5.6077371      0              57.158118      2147.0648    
    120000   304.51633     -5.3534434      0              58.373351      2078.8823    
    121000   298.59621     -4.4572742      0              58.030603      2054.4313    
    122000   301.66248     -3.6869678      0              59.442595      2164.9698    
    123000   305.79553     -4.9589192      0              59.035577      2162.6769    
    124000   292.46524     -4.0388048      0              57.166032      2163.9754    
    125000   301.12407     -5.8226789      0              57.19421       2050.0023    
    126000   299.2624      -4.1490856      0              58.478207      2106.8803    
    127000   302.92257     -4.3814346      0              59.01183       2095.5642    
    128000   304.50173     -5.0479314      0              58.675808      2077.0989    
    129000   308.19434     -4.89925        0              59.59725       2083.3381    
    130000   299.46377     -4.1025763      0              58.566857      2110.8677    
    131000   300.92638     -4.8545914      0              58.120926      2238.5596    
    132000   309.68453     -4.9083681      0              59.899986      2036.7784    
    133000   303.29418     -3.4197237      0              60.051309      2105.5906    
    134000   290.07516     -4.5931964      0              56.111462      2004.566     
    135000   302.69082     -4.742616       0              58.602151      2148.1965    
    136000   296.28244     -4.3864244      0              57.617246      2066.8068    
    137000   298.49752     -3.5030324      0              58.964193      2204.516     
    138000   298.50006     -4.0425808      0              58.425175      2129.1066    
    139000   302.87197     -4.3719473      0              59.010729      2044.0806    
    140000   305.36192     -3.6577907      0              60.245963      2104.3435    
    141000   293.22266     -3.9796498      0              57.383695      2136.0217    
    142000   298.81029     -6.1986048      0              56.334075      1925.2722    
    143000   302.51959     -5.653489       0              57.655444      2100.8855    
    144000   302.74762     -6.0335197      0              57.323134      2088.9653    
    145000   301.84717     -3.7924462      0              59.375768      2112.2471    
    146000   302.98789     -4.7034385      0              58.703495      2036.3362    
    147000   299.14285     -4.5493114      0              58.052964      2021.7055    
    148000   293.28876     -3.5201768      0              57.856999      2005.7578    
    149000   303.99534     -3.8453598      0              59.772406      2090.0085    
    150000   286.13009     -5.0841805      0              54.794885      2024.5445    
    151000   306.83894     -5.4374599      0              58.775393      2014.3967    
    152000   298.20794     -5.1861475      0              57.220476      2057.907     
    153000   310.42441     -2.8960196      0              62.067173      2191.4737    
    154000   308.9705      -5.372356       0              59.286573      2048.7294    
    155000   307.57791     -4.9010449      0              59.466453      2044.794     
    156000   304.73426     -5.3662484      0              58.406152      2025.8025    
    157000   294.35464     -5.0117148      0              56.588521      2062.5699    
    158000   304.63863     -5.1880576      0              58.564331      2165.041     
    159000   310.65903     -4.8346074      0              60.177683      1968.8091    
    160000   296.82581     -2.6303955      0              59.486988      2142.2722    
    161000   304.80052     -4.616532       0              59.169735      2232.5549    
    162000   288.03444     -3.1250333      0              57.15256       2188.0074    
    163000   296.05592     -3.9060603      0              58.050206      2143.2035    
    164000   289.75541     -4.789316       0              55.848428      2137.0592    
    165000   303.48467     -1.8027307      0              61.708167      2146.8287    
    166000   304.92468     -4.5930958      0              59.219154      2129.2       
    167000   289.35691     -4.6110668      0              55.943283      1968.9096    
    168000   302.72291     -5.1791182      0              58.172364      2031.3026    
    169000   294.77722     -3.9652554      0              57.723415      2093.8133    
    170000   302.47925     -5.3736015      0              57.92689       2048.2502    
    171000   301.64795     -6.0207092      0              57.105813      2012.8894    
    172000   308.1565      -3.4993898      0              60.989192      2084.2697    
    173000   306.85583     -4.817791       0              59.398597      2037.9713    
    174000   302.58285     -2.7323213      0              60.589849      2212.9566    
    175000   298.71866     -3.919316       0              58.594188      2158.6095    
    176000   293.53523     -5.4893069      0              55.939449      1932.4983    
    177000   293.45368     -5.5710042      0              55.840686      2097.8189    
    178000   292.27469     -4.9849519      0              56.180008      2012.5037    
    179000   290.17304     -4.6315443      0              56.093599      2090.4862    
    180000   302.02844     -4.3417893      0              58.864358      2082.4208    
    181000   307.48664     -3.6739643      0              60.674433      2197.5945    
    182000   295.81614     -4.5614621      0              57.344625      2045.9414    
    183000   300.62308     -5.7354031      0              57.176642      2133.883     
    184000   306.76581     -5.1960257      0              59.001523      2141.4261    
    185000   301.48382     -4.4256556      0              58.666519      2087.2953    
    186000   297.69399     -3.2087971      0              59.090272      2188.019     
    187000   302.02477     -4.7004634      0              58.504917      2025.6808    
    188000   295.55016     -5.2415171      0              56.608908      2053.4444    
    189000   298.63618     -7.3654645      0              55.130778      1950.0043    
    190000   295.12566     -6.1913499      0              55.570239      2009.5269    
    191000   292.8083      -5.1588816      0              56.117749      2093.6364    
    192000   298.994       -5.1272377      0              57.443886      2084.944     
    193000   293.2518      -5.969435       0              55.400007      2083.4604    
    194000   306.40076     -4.0239286      0              60.097224      2069.1817    
    195000   303.02248     -3.8032296      0              59.610944      2139.7827    
    196000   302.58937     -4.8894983      0              58.434038      2142.4175    
    197000   295.30024     -3.5666663      0              58.231457      2190.9839    
    198000   300.47795     -4.1049114      0              58.776762      2148.4511    
    199000   302.52245     -3.6237493      0              59.685782      2097.3069    
    200000   302.15083     -5.3938913      0              57.83787       2071.242     
    201000   311.48213     -4.7430733      0              60.44147       2101.0764    
    202000   302.83297     -5.3162432      0              58.05827       1982.9346    
    203000   298.28603     -4.0658004      0              58.357165      2095.9919    
    204000   299.80861     -6.0119597      0              56.72964       1910.0964    
    205000   303.86169     -5.6595576      0              57.930238      2000.827     
    206000   289.0859      -3.8443955      0              56.65324       2003.179     
    207000   310.25199     -4.1722792      0              60.75483       2191.0205    
    208000   299.75838     -4.2931345      0              58.437953      2106.6002    
    209000   295.85744     -5.3410296      0              56.573701      1951.9657    
    210000   290.97722     -4.8592811      0              56.034155      2077.0973    
    211000   298.45006     -5.4000774      0              57.057216      2112.5484    
    212000   300.15878     -6.1719361      0              56.642945      2152.7606    
    213000   297.2663      -6.5700051      0              55.63956       2023.2458    
    214000   283.33325     -3.441881       0              55.851885      2163.021     
    215000   301.1191      -2.4935718      0              60.522276      2062.0758    
    216000   296.09723     -4.7641986      0              57.200714      2133.1965    
    217000   296.91475     -5.8330141      0              56.302981      2047.4254    
    218000   307.35995     -4.0591509      0              60.262735      2084.9486    
    219000   291.51862     -3.5536577      0              57.453078      2095.3731    
    220000   309.58788     -2.8726432      0              61.915485      2205.9076    
    221000   299.49458     -4.2680719      0              58.407811      1999.7894    
    222000   300.08485     -3.9426525      0              58.856757      2092.8928    
    223000   308.65636     -3.1583924      0              61.434795      2171.6043    
    224000   299.0793      -4.3629151      0              58.22606       2135.2176    
    225000   298.8666      -4.9517001      0              57.592764      2068.262     
    226000   299.45484     -5.163892       0              57.503673      2020.8883    
    227000   302.33722     -4.3379783      0              58.932788      2216.4722    
    228000   294.60854     -4.7672211      0              56.886148      2213.7694    
    229000   288.55891     -4.7635407      0              55.623811      2081.249     
    230000   300.56187     -3.1088188      0              59.790416      2132.996     
    231000   303.56274     -4.5067962      0              59.020438      2115.634     
    232000   301.16537     -6.4600509      0              56.565481      2002.4264    
    233000   290.59572     -3.8599706      0              56.953629      2129.9678    
    234000   289.30484     -2.6408067      0              57.902647      2068.6692    
    235000   297.36156     -5.6300584      0              56.599441      1999.0979    
    236000   304.70897     -5.6843511      0              58.082758      1982.7238    
    237000   307.35941     -7.0240542      0              57.297719      1978.2156    
    238000   301.18785     -4.0150302      0              59.015206      2172.4017    
    239000   308.43437     -4.4469567      0              60.099775      1986.8416    
    240000   300.37711     -4.1824184      0              58.678153      2067.3108    
    241000   289.74988     -3.3492545      0              57.287334      2145.8645    
    242000   293.50523     -4.6534976      0              56.76898       2101.1637    
    243000   304.20146     -4.308313       0              59.352588      2075.3596    
    244000   289.16424     -4.769051       0              55.744979      1984.8713    
    245000   298.81006     -5.6676326      0              56.864998      2112.9751    
    246000   294.57381     -4.5171369      0              57.128965      2096.5498    
    247000   299.71076     -4.0714049      0              58.649717      2082.9214    
    248000   296.74926     -5.1777582      0              56.923605      2097.5183    
    249000   300.48226     -4.8273912      0              58.055184      2130.1281    
    250000   296.67976     -5.1057674      0              56.981052      2089.5764    
    251000   294.15185     -4.0480646      0              57.509733      2133.8182    
    252000   302.40846     -2.5031586      0              60.782518      2143.3593    
    253000   293.4452      -6.0222621      0              55.387654      2015.3022    
    254000   294.06952     -5.7554082      0              55.785159      2019.5365    
    255000   301.56145     -4.3791854      0              58.729235      2109.8975    
    256000   305.5067      -3.0307297      0              60.903322      2220.9002    
    257000   305.90109     -5.2706649      0              58.745921      2062.179     
    258000   297.41049     -3.6058091      0              58.633932      2090.7716    
    259000   299.95505     -4.8174712      0              57.954775      2097.5285    
    260000   306.14528     -5.1619384      0              58.90575       2100.4692    
    261000   297.00629     -3.9597741      0              58.195379      2124.6604    
    262000   285.42474     -4.3683597      0              55.363095      2060.9622    
    263000   294.14532     -3.8038789      0              57.752552      2168.9856    
    264000   300.63161     -5.1150724      0              57.798758      1991.4174    
    265000   296.76335     -2.8216599      0              59.282651      2069.3702    
    266000   285.97852     -5.7813654      0              54.065982      1978.6537    
    267000   310.70548     -6.0935903      0              58.928421      2120.9263    
    268000   296.78859     -5.1563343      0              56.953259      2138.8223    
    269000   302.23655     -3.0469321      0              60.202767      2231.5005    
    270000   306.63887     -2.5691679      0              61.601816      2237.4578    
    271000   303.65662     -3.1531254      0              60.393756      2163.9211    
    272000   301.67929     -2.592793       0              60.540288      2126.2559    
    273000   310.35207     -4.0942634      0              60.853789      2047.6376    
    274000   305.96768     -4.96242        0              59.068101      2130.8174    
    275000   307.67893     -4.2317161      0              60.156922      2089.3968    
    276000   287.78772     -3.0557961      0              57.170166      2059.4665    
    277000   299.92548     -5.2248404      0              57.541216      2037.6629    
    278000   299.76632     -5.284239       0              57.448512      2134.5637    
    279000   291.62565     -3.8222514      0              57.206883      2120.6296    
    280000   313.69056     -4.181304       0              61.465402      2169.8187    
    281000   300.04224     -4.608354       0              58.182138      2163.2509    
    282000   305.21713     -5.04373        0              58.829723      2052.6126    
    283000   303.41923     -4.178035       0              59.319168      2101.1574    
    284000   292.85857     -2.900378       0              58.386773      2230.013     
    285000   301.4449      -4.8555577      0              58.228472      2031.0862    
    286000   297.41402     -5.0092573      0              57.231222      2017.2642    
    287000   296.03261     -5.6997136      0              56.251674      2080.5927    
    288000   303.98284     -5.3486008      0              58.266549      2034.0389    
    289000   292.50085     -4.0463557      0              57.165933      2041.3365    
    290000   295.9284      -4.8404904      0              57.08909       2047.1196    
    291000   302.46565     -6.5042176      0              56.793426      2072.5688    
    292000   300.91304     -4.9891563      0              57.983569      2054.3909    
    293000   302.52897     -6.6821956      0              56.628699      2107.7483    
    294000   293.0721      -5.9227827      0              55.409052      2149.3205    
    295000   298.34721     -3.337932       0              59.097838      2119.8973    
    296000   304.71777     -4.579334       0              59.189617      2012.9655    
    297000   299.68874     -3.5971793      0              59.119335      2086.4412    
    298000   298.05054     -4.3086899      0              58.064996      2088.6425    
    299000   304.64948     -3.4708958      0              60.283763      2155.6146    
    300000   295.44479     -5.7474118      0              56.080962      2016.4495    
    301000   297.15586     -3.6152561      0              58.571196      2000.5861    
    302000   293.67995     -1.6152365      0              59.843806      2083.2246    
    303000   302.90988     -5.7562313      0              57.634378      2106.0241    
    304000   301.56633     -3.1479529      0              59.961488      2258.4024    
    305000   301.26513     -3.9127334      0              59.133676      2081.3544    
    306000   292.02788     -5.4363661      0              55.676942      1995.4153    
    307000   308.11951     -4.5419481      0              59.938891      2085.3774    
    308000   294.62098     -4.6159875      0              57.039986      2077.1298    
    309000   286.07035     -4.1369817      0              55.729583      1928.5857    
    310000   311.40781     -4.2603332      0              60.908657      2165.5202    
    311000   311.04549     -3.4419411      0              61.651225      2211.9976    
    312000   294.36833     -5.0351632      0              56.567938      2043.9674    
    313000   299.74965     -4.7129485      0              58.016314      2123.0491    
    314000   307.70469     -3.5171848      0              60.876844      2188.63      
    315000   287.67592     -4.2885093      0              55.914056      2005.982     
    316000   304.3823      -3.6659833      0              60.032763      2135.4021    
    317000   300.75862     -6.0749148      0              56.865496      2093.5285    
    318000   305.32659     -4.5296384      0              59.366721      2101.3981    
    319000   295.91667     -4.3785851      0              57.54854       2065.997     
    320000   296.3859      -4.4880617      0              57.53726       2116.4395    
    321000   312.11986     -4.7408624      0              60.57714       2061.3284    
    322000   296.85041     -4.9486904      0              57.17384       2098.886     
    323000   292.81078     -4.6844065      0              56.592742      2068.8306    
    324000   309.24462     -4.2121003      0              60.504194      2097.1334    
    325000   291.46537     -4.9413986      0              56.054194      2014.2226    
    326000   294.32292     -5.1282605      0              56.465337      2055.3123    
    327000   298.9635      -3.8945427      0              58.670199      2163.7035    
    328000   306.9171      -4.1408217      0              60.088387      2057.2276    
    329000   294.81133     -4.1477249      0              57.548083      2133.8373    
    330000   294.73799     -4.6202323      0              57.060228      2038.7651    
    331000   307.67589     -3.6972495      0              60.690754      2086.1594    
    332000   312.01999     -3.7315122      0              61.56559       2212.3846    
    333000   307.87995     -4.1571554      0              60.273552      2179.6896    
    334000   298.6649      -4.5275936      0              57.97466       2009.643     
    335000   310.61324     -4.4829382      0              60.519771      2020.8443    
    336000   308.90228     -5.6188686      0              59.025784      2076.8761    
    337000   300.89483     -4.9993721      0              57.969543      2065.195     
    338000   299.69987     -3.9126858      0              58.806159      2151.9728    
    339000   302.48395     -5.154318       0              58.147155      2053.8838    
    340000   302.01607     -3.2772991      0              59.92626       2061.406     
    341000   306.61412     -3.6711294      0              60.494675      2117.38      
    342000   296.8212      -5.481822       0              56.634596      2105.6626    
    343000   298.99985     -4.7498689      0              57.82248       2067.5364    
    344000   300.95261     -4.8077267      0              58.173281      2077.1261    
    345000   290.2832      -4.4420592      0              56.306137      2094.757     
    346000   304.74953     -3.6276462      0              60.14795       2136.3155    
    347000   303.34527     -4.0598333      0              59.421891      2164.8689    
    348000   295.33013     -4.1273691      0              57.67701       2005.8886    
    349000   293.28152     -3.886939       0              57.488723      2066.5691    
    350000   290.88918     -4.7286568      0              56.146354      2051.353     
    351000   294.36842     -5.1514839      0              56.451636      2023.8008    
    352000   299.68377     -4.2821961      0              58.433278      2127.8649    
    353000   303.51797     -5.1079439      0              58.409921      2162.205     
    354000   290.82626     -4.7479324      0              56.113912      2099.3103    
    355000   294.67691     -4.9559065      0              56.711771      2146.0327    
    356000   291.7303      -5.2713396      0              55.779695      2042.8491    
    357000   298.19404     -3.6190647      0              58.78465       2061.5942    
    358000   296.24446     -5.0276529      0              56.968069      2026.7355    
    359000   299.74892     -3.3269043      0              59.402205      2149.3495    
    360000   305.77998     -4.9361978      0              59.055044      2068.3276    
    361000   293.297       -4.4955035      0              56.883398      2041.0774    
    362000   306.49617     -6.8043943      0              57.336726      2043.17      
    363000   302.91098     -4.3100797      0              59.08076       2100.995     
    364000   301.13463     -4.9222326      0              58.096867      2153.2666    
    365000   292.68628     -3.4621416      0              57.788953      2150.5318    
    366000   300.88255     -5.0312513      0              57.935095      2040.9724    
    367000   298.30832     -4.5931456      0              57.834484      2029.5926    
    368000   298.04923     -3.5190743      0              58.854336      2167.172     
    369000   282.95917     -6.0216523      0              53.193828      1944.8698    
    370000   299.98355     -4.8360889      0              57.94212       2067.2543    
    371000   299.62294     -3.8646783      0              58.838067      2142.4138    
    372000   303.46737     -5.5399136      0              57.967363      2030.6478    
    373000   305.21342     -4.4501978      0              59.422478      2000.6716    
    374000   301.95073     -5.2494679      0              57.940419      2010.7768    
    375000   290.83545     -4.5970623      0              56.266705      2011.4413    
    376000   296.44558     -4.7931822      0              57.24463       2066.443     
    377000   310.57143     -5.7944812      0              59.199478      1995.5024    
    378000   302.25029     -4.6738345      0              58.578742      2082.4528    
    379000   307.13365     -5.024611       0              59.249915      2111.8832    
    380000   292.28012     -2.9525795      0              58.213517      2172.6976    
    381000   293.78116     -5.076362       0              56.40386       2078.358     
    382000   310.86957     -3.7166309      0              61.339721      2095.6576    
    383000   302.93093     -4.9589838      0              58.436031      2071.5143    
    384000   303.99477     -4.245424       0              59.372222      2081.4447    
    385000   298.5227      -4.7369468      0              57.735549      1959.0827    
    386000   300.18015     -4.9690723      0              57.850282      2138.2432    
    387000   305.01238     -4.8247376      0              59.005867      2040.8168    
    388000   292.14698     -3.844604       0              57.29363       2095.5933    
    389000   307.55352     -5.5417751      0              58.820618      2112.7779    
    390000   299.21508     -5.2051466      0              57.412244      2110.7796    
    391000   302.01541     -4.1874033      0              59.016018      2076.0702    
    392000   305.37155     -5.2455128      0              58.660256      2060.5128    
    393000   300.45089     -6.0650137      0              56.810998      2021.8341    
    394000   289.0254      -7.3457329      0              53.139241      1940.5561    
    395000   308.05285     -4.7974891      0              59.669401      2065.6695    
    396000   294.45179     -4.305485       0              57.315082      2098.8265    
    397000   293.68417     -5.1339396      0              56.325986      2011.7763    
    398000   309.31301     -4.5428216      0              60.187785      2062.8274    
    399000   305.00181     -4.9475251      0              58.880867      2137.1524    
    400000   301.88689     -4.8772456      0              58.29928       2101.8248    
    401000   284.98314     -3.5719495      0              56.067093      2145.1008    
    402000   299.45826     -3.5691356      0              59.099145      2103.6627    
    403000   296.53313     -1.8184819      0              60.237651      2160.1173    
    404000   297.92359     -4.1160832      0              58.231035      2146.4669    
    405000   301.10921     -5.5980347      0              57.415744      2064.2236    
    406000   298.43152     -2.1135487      0              60.339865      2197.0832    
    407000   290.91977     -4.305723       0              56.575691      2115.5712    
    408000   303.63105     -3.5971369      0              59.944393      2160.8623    
    409000   293.04295     -5.9756968      0              55.350039      2107.1162    
    410000   303.38071     -4.820804       0              58.668338      2101.6367    
    411000   309.16967     -4.3451798      0              60.35543       2098.9854    
    412000   295.59222     -4.9033542      0              56.955873      2070.6464    
    413000   292.87246     -5.3745151      0              55.915542      2114.4116    
    414000   306.35112     -5.0405053      0              59.07026       2122.5003    
    415000   303.55466     -5.5814148      0              57.944129      2075.6955    
    416000   302.68501     -5.3820968      0              57.961454      2029.2485    
    417000   298.07758     -5.5506248      0              56.828719      2046.0798    
    418000   297.58634     -5.218071       0              57.05847       2120.0814    
    419000   298.65837     -5.9084031      0              56.592483      2135.2383    
    420000   298.46167     -2.5194623      0              59.94026       2082.048     
    421000   303.27239     -4.0227788      0              59.443694      2214.0791    
    422000   306.20709     -5.7606672      0              58.319955      2084.2574    
    423000   291.00156     -4.3070062      0              56.591523      2015.7165    
    424000   291.65982     -2.8137619      0              58.222523      2111.6219    
    425000   293.51932     -3.124292       0              58.301134      2162.7869    
    426000   306.89805     -5.8679592      0              58.357263      2146.3741    
    427000   299.6276      -4.0610721      0              58.642647      2036.9952    
    428000   295.74655     -4.8448005      0              57.046723      1977.0428    
    429000   306.48977     -3.8054904      0              60.33429       2114.7438    
    430000   292.54988     -5.3791012      0              55.843449      2028.5886    
    431000   295.97631     -5.0577556      0              56.88185       2046.8932    
    432000   293.58743     -5.1043182      0              56.335361      2089.378     
    433000   292.53782     -4.1131199      0              57.106905      2115.2603    
    434000   292.52029     -3.4509813      0              57.765375      2098.7244    
    435000   297.71167     -4.8926677      0              57.4101        2030.9957    
    436000   297.24005     -5.2809563      0              56.923116      2091.0609    
    437000   303.92902     -5.4130931      0              58.190794      2053.6313    
    438000   306.30414     -7.4135965      0              56.687336      1946.0816    
    439000   304.18869     -4.975077       0              58.683151      2105.55      
    440000   300.48516     -4.8517564      0              58.031427      2033.4592    
    441000   293.65348     -4.4207647      0              57.032737      2076.1687    
    442000   298.4613      -5.6677746      0              56.791871      2118.6648    
    443000   297.63017     -4.4185843      0              57.867128      2069.6764    
    444000   294.97973     -3.7738419      0              57.957208      2136.8211    
    445000   302.97516     -3.4941496      0              59.910122      2167.9356    
    446000   298.98853     -3.6267376      0              58.943243      2092.4281    
    447000   293.40986     -3.8181285      0              57.584392      2136.4627    
    448000   301.47686     -6.0037527      0              57.086964      2008.6531    
    449000   304.11771     -6.1994126      0              57.443961      2077.9171    
    450000   302.48801     -5.9864105      0              57.315914      2084.6488    
    451000   296.52478     -5.3867246      0              56.667661      2105.4441    
    452000   313.61556     -4.0441327      0              61.586878      2096.5104    
    453000   299.40866     -4.497875       0              58.160027      2025.2802    
    454000   302.00874     -4.9235038      0              58.278522      2117.9281    
    455000   303.10014     -4.4287047      0              59.001721      2099.9484    
    456000   301.59024     -5.0477237      0              58.066722      2077.9102    
    457000   303.73044     -4.9420658      0              58.620265      1949.7503    
    458000   297.65982     -3.1671864      0              59.124731      2165.5689    
    459000   314.34832     -4.8307877      0              60.953569      1951.503     
    460000   305.26547     -3.9173858      0              59.966183      2150.1336    
    461000   301.97964     -3.7744469      0              59.421489      2116.4909    
    462000   293.91303     -4.1589115      0              57.348907      2060.5657    
    463000   316.67154     -5.3616104      0              60.908931      2011.5213    
    464000   296.8384      -6.0015892      0              56.118429      2069.4342    
    465000   305.17302     -4.2781006      0              59.58612       2025.0712    
    466000   299.64891     -6.4709287      0              56.23725       2021.971     
    467000   299.59104     -6.7513948      0              55.944673      2053.134     
    468000   294.09263     -4.9200206      0              56.625384      2094.5017    
    469000   301.76688     -4.4910722      0              58.66034       1997.811     
    470000   302.38105     -4.2097705      0              59.07017       2131.9628    
    471000   294.45912     -4.4704338      0              57.151667      2041.7751    
    472000   294.65979     -5.9665743      0              55.69752       1985.6377    
    473000   305.07809     -5.3778662      0              58.466489      2219.8489    
    474000   305.68711     -5.0202962      0              58.951511      2141.15      
    475000   296.93827     -3.6908834      0              58.450035      2050.8028    
    476000   291.00454     -4.156348       0              56.742805      2141.9168    
    477000   303.7623      -5.7213561      0              57.847642      2012.8222    
    478000   292.07312     -3.3162735      0              57.806504      2136.2091    
    479000   304.67434     -3.567151       0              60.192711      2125.8957    
    480000   290.5858      -3.1128519      0              57.698669      2151.8727    
    481000   297.60991     -3.6214761      0              58.659996      2244.8745    
    482000   300.04475     -4.7710384      0              58.019979      2007.3769    
    483000   294.85214     -5.3951766      0              56.309171      2085.7426    
    484000   302.16239     -4.1356999      0              59.098482      2091.1386    
    485000   308.35824     -6.0956526      0              58.435147      2030.6989    
    486000   301.09653     -4.3216375      0              58.689488      2156.7074    
    487000   300.38682     -4.4372651      0              58.425338      2152.6425    
    488000   305.42621     -6.5476459      0              57.36956       1872.0861    
    489000   297.95653     -4.5145355      0              57.839475      1965.2026    
    490000   302.6594      -4.4405076      0              58.897683      2104.0275    
    491000   307.32204     -3.0481846      0              61.265768      2249.7272    
    492000   295.48531     -5.3582185      0              56.478635      2006.1426    
    493000   302.11009     -3.0776536      0              60.145582      2162.9942    
    494000   300.8815      -6.0911117      0              56.875015      2067.0721    
    495000   306.92026     -3.9874249      0              60.242446      2103.44      
    496000   303.04643     -4.2748451      0              59.14434       2086.3475    
    497000   290.67157     -4.4810061      0              56.348466      2102.9359    
    498000   302.68368     -5.0955267      0              58.247746      2086.3632    
    499000   301.58812     -4.7019861      0              58.412015      2113.0946    
    500000   306.50752     -4.5069267      0              59.636568      2130.8833    
    501000   292.74101     -5.6132109      0              55.649336      2061.9806    
    502000   305.64109     -4.4284512      0              59.533725      2062.374     
    503000   298.64521     -5.144856       0              57.353276      2043.5073    
    504000   294.89545     -3.4782682      0              58.235144      2157.5431    
    505000   312.36758     -4.7081019      0              60.66174       2090.4471    
    506000   296.31287     -5.8372324      0              56.172807      2119.1977    
    507000   293.76236     -4.527217       0              56.949071      2090.8556    
    508000   293.87394     -7.6356538      0              53.863985      1983.617     
    509000   297.90048     -5.3242168      0              57.018064      2066.4416    
    510000   303.40379     -4.2263678      0              59.267603      2245.3012    
    511000   300.85445     -4.4700031      0              58.490462      2188.0732    
    512000   292.59624     -3.0734723      0              58.158778      2106.602     
    513000   293.82023     -6.1395993      0              55.348799      2030.7577    
    514000   314.63952     -2.7338571      0              63.11144       2156.6561    
    515000   300.10907     -4.818454       0              57.986023      2013.737     
    516000   302.94478     -3.4635466      0              59.934367      2126.5237    
    517000   294.53237     -4.7611082      0              56.876322      2123.4594    
    518000   304.86795     -3.2124386      0              60.587939      2104.8778    
    519000   310.35304     -4.7137328      0              60.234524      2147.6031    
    520000   308.13224     -4.6988676      0              59.784637      2059.0524    
    521000   305.98915     -6.5304751      0              57.504539      2041.8895    
    522000   293.54899     -5.3067334      0              56.124903      2028.2849    
    523000   301.61157     -5.2050859      0              57.913824      2064.8366    
    524000   300.19174     -4.1529359      0              58.668842      2130.463     
    525000   299.98148     -5.4556845      0              57.322092      2020.8162    
    526000   305.63208     -3.9610458      0              59.999244      2122.1571    
    527000   292.71803     -5.4234412      0              55.834298      2158.0701    
    528000   301.1515      -4.4507365      0              58.571892      2062.9813    
    529000   296.44735     -5.5213262      0              56.516856      2086.8996    
    530000   298.09229     -5.7356431      0              56.646779      2005.6718    
    531000   296.08404     -4.4289016      0              57.53325       2019.1558    
    532000   292.99186     -4.6009133      0              56.71413       2141.4845    
    533000   296.59804     -4.3352199      0              57.734497      2079.0102    
    534000   299.65685     -5.2252018      0              57.484638      1991.6345    
    535000   291.84057     -2.7451907      0              58.328921      2161.7676    
    536000   297.22821     -5.1337622      0              57.067831      2146.0473    
    537000   302.92811     -4.6311065      0              58.763318      2102.6284    
    538000   293.85495     -5.7026885      0              55.792976      2128.8765    
    539000   304.95158     -5.9084145      0              57.909465      2042.8785    
    540000   295.80131     -4.9951536      0              56.907829      2047.2736    
    541000   314.67541     -5.5945461      0              60.258262      1988.7597    
    542000   298.60872     -4.6223943      0              57.868102      2054.5113    
    543000   304.25526     -5.1276851      0              58.544476      2010.9121    
    544000   299.65619     -5.7968065      0              56.912896      2002.4157    
    545000   295.81771     -4.8733003      0              57.033116      2100.2593    
    546000   300.11106     -5.481553       0              57.323342      2032.9233    
    547000   295.36449     -5.1682232      0              56.643346      2090.238     
    548000   292.03896     -5.4077282      0              55.707901      1949.2246    
    549000   303.93453     -3.5881642      0              60.016876      2207.9811    
    550000   297.67542     -4.2526425      0              58.042539      2004.7691    
    551000   300.74674     -4.7078824      0              58.230042      1934.4631    
    552000   299.24961     -5.4561075      0              57.16851       2004.5101    
    553000   293.75115     -4.5455984      0              56.928344      2027.3821    
    554000   301.42789     -5.6006086      0              57.479861      2169.9868    
    555000   300.89715     -6.6207163      0              56.348685      2091.3031    
    556000   309.30671     -4.9843987      0              59.744889      2167.4023    
    557000   302.10586     -5.4082376      0              57.814113      2039.6064    
    558000   308.44354     -5.1404247      0              59.408227      2022.0724    
    559000   297.29543     -2.6784934      0              59.537168      2237.7719    
    560000   289.75674     -4.7426669      0              55.895356      1989.216     
    561000   303.67243     -5.9998548      0              57.550334      2081.1525    
    562000   294.66185     -4.193425       0              57.471101      2012.2911    
    563000   295.95804     -4.4625121      0              57.47327       2033.1118    
    564000   291.83742     -4.136343       0              56.937109      2091.7162    
    565000   302.46966     -3.3322469      0              59.966236      2191.4422    
    566000   302.33785     -4.5339388      0              58.736961      2112.3605    
    567000   308.30748     -3.5749176      0              60.94526       2112.2207    
    568000   307.84982     -4.1041599      0              60.320241      2121.9721    
    569000   293.47904     -4.0255305      0              57.391467      2201.9508    
    570000   311.62791     -5.4073491      0              59.807702      2012.8962    
    571000   293.01669     -3.7086433      0              57.611597      2118.2137    
    572000   303.96031     -6.5456464      0              57.06479       2013.1122    
    573000   295.25569     -6.2473436      0              55.541457      2006.9274    
    574000   304.46442     -4.4965114      0              59.219419      2085.9584    
    575000   293.25991     -5.5796062      0              55.791532      2093.9928    
    576000   293.31296     -6.6730917      0              54.709149      2061.6935    
    577000   300.87599     -4.7361695      0              58.228803      2089.6251    
    578000   299.15948     -4.8051075      0              57.800648      2096.0362    
    579000   300.33052     -4.273201       0              58.577621      2083.1928    
    580000   302.80233     -4.9618575      0              58.406244      2245.563     
    581000   298.92036     -4.1911675      0              58.364547      2125.5494    
    582000   299.0825      -5.2031252      0              57.38652       2057.0362    
    583000   300.19824     -5.5869166      0              57.236222      1978.6827    
    584000   302.69394     -6.4662891      0              56.87913       2019.5775    
    585000   297.00016     -5.3421312      0              56.811739      2047.1874    
    586000   302.04108     -4.3015151      0              58.907279      1993.0724    
    587000   301.07467     -4.8285909      0              58.177961      2050.5171    
    588000   306.83575     -4.3679808      0              59.844204      2121.3561    
    589000   303.96253     -3.6774757      0              59.933423      2089.3497    
    590000   295.50683     -3.2791514      0              58.562205      2165.3273    
    591000   307.24168     -5.7300867      0              58.567047      2076.4849    
    592000   300.16905     -4.0743551      0              58.742676      2096.5257    
    593000   295.97553     -5.2491794      0              56.690263      2077.8516    
    594000   297.44657     -5.1954979      0              57.051793      2113.7768    
    595000   301.92794     -4.0775107      0              59.107605      2101.5032    
    596000   302.0897      -5.2810246      0              57.937944      2035.9791    
    597000   296.88213     -5.1922402      0              56.936928      2107.7245    
    598000   297.23255     -6.2894628      0              55.913039      2092.8591    
    599000   306.00621     -3.5898568      0              60.448729      2249.8575    
    600000   290.21942     -3.3094602      0              57.42539       2075.4646    
    601000   303.94928     -4.0580333      0              59.550093      2145.7327    
    602000   310.66685     -4.5599084      0              60.45402       2152.7137    
    603000   297.73096     -4.4986444      0              57.808161      2091.6848    
    604000   296.45002     -5.9406288      0              56.098113      2122.7432    
    605000   300.58947     -6.1570272      0              56.747984      2070.2147    
    606000   300.22112     -4.8894914      0              57.938436      2130.7626    
    607000   298.60416     -5.0565175      0              57.433023      2096.2227    
    608000   292.63112     -5.8752943      0              55.364257      1992.302     
    609000   292.78564     -6.7628413      0              54.509046      2028.9237    
    610000   295.46691     -5.6029603      0              56.230043      2020.0058    
    611000   300.3383      -3.6497905      0              59.202658      2136.5311    
    612000   303.28146     -4.53645        0              58.931922      2109.1354    
    613000   291.36269     -5.5297827      0              55.44432       2137.3328    
    614000   301.9192      -4.3055606      0              58.877727      2187.3375    
    615000   291.19752     -4.6478072      0              56.291731      2093.9779    
    616000   294.90875     -6.9817849      0              54.73441       2079.1969    
    617000   291.83271     -4.8578782      0              56.214588      2072.9173    
    618000   297.13869     -4.5357613      0              57.647098      2014.1292    
    619000   300.83237     -4.7243748      0              58.23147       2128.5485    
    620000   298.99745     -5.0150439      0              57.556804      2057.9725    
    621000   298.60425     -4.6135196      0              57.876042      2048.0527    
    622000   289.12697     -4.0619082      0              56.444321      2030.6986    
    623000   312.69095     -4.3437323      0              61.093783      2104.384     
    624000   312.86305     -5.6189271      0              59.854603      2087.7828    
    625000   296.26309     -5.8207906      0              56.178831      2064.5953    
    626000   307.94973     -4.3329262      0              60.112385      2171.2056    
    627000   288.23515     -4.7153151      0              55.604281      2058.6488    
    628000   295.68235     -3.4306021      0              58.447485      2183.462     
    629000   305.81102     -5.696065       0              58.301673      1989.0806    
    630000   304.70495     -4.6720866      0              59.094182      2185.4456    
    631000   300.97522     -3.5763441      0              59.409396      2144.9239    
    632000   301.254       -5.0407289      0              58.00335       2024.6163    
    633000   291.59916     -5.7257783      0              55.297813      2104.56      
    634000   313.86752     -4.9525011      0              60.731238      2079.0068    
    635000   295.69581     -3.7863306      0              58.094574      2066.0272    
    636000   297.0611      -4.4721514      0              57.694472      2135.8535    
    637000   304.05631     -5.4001904      0              58.230336      2116.2067    
    638000   295.52834     -4.9375502      0              56.908308      2100.5774    
    639000   311.21404     -6.325658       0              58.802781      2116.122     
    640000   306.27528     -4.6350432      0              59.459852      2150.6706    
    641000   300.12044     -5.3228097      0              57.484047      1968.5905    
    642000   300.17117     -5.6024873      0              57.214987      2027.1557    
    643000   296.82939     -5.7863179      0              56.331813      2042.1352    
    644000   309.44885     -5.0833001      0              59.675735      2147.6145    
    645000   294.70926     -3.977211       0              57.697237      2122.3565    
    646000   289.60931     -4.9655648      0              55.641606      2013.4423    
    647000   303.25125     -4.4651526      0              58.996897      1945.6552    
    648000   306.54144     -4.1085695      0              60.042023      2053.7805    
    649000   296.89976     -3.425173       0              58.707685      2228.6299    
    650000   294.8435      -4.3104622      0              57.392077      2049.6719    
    651000   296.06619     -5.4033087      0              56.555106      2148.6256    
    652000   309.47193     -5.4775554      0              59.286308      2052.7259    
    653000   293.96074     -4.8810159      0              56.636787      2010.3367    
    654000   306.60024     -4.1209199      0              60.041979      2217.7822    
    655000   294.58251     -5.0519134      0              56.596009      1959.9818    
    656000   306.59876     -5.0163595      0              59.146231      2028.405     
    657000   298.12547     -6.0558006      0              56.333565      2071.4537    
    658000   299.15407     -5.3218989      0              57.282725      2002.9804    
    659000   292.9726      -5.0746647      0              56.236349      2131.1121    
    660000   301.80539     -6.1459269      0              57.013544      2016.1702    
    661000   298.78575     -4.9503913      0              57.577152      2046.8006    
    662000   296.28179     -3.9168756      0              58.086659      2159.8966    
    663000   293.61413     -4.9241825      0              56.521086      2130.1131    
    664000   301.63399     -5.4259332      0              57.697668      2049.7548    
    665000   304.55633     -3.9940429      0              59.741123      2129.7459    
    666000   297.51433     -5.0260287      0              57.235443      2102.3814    
    667000   300.12892     -3.5190269      0              59.289605      2165.2447    
    668000   298.23971     -2.3734592      0              60.039813      2196.9971    
    669000   300.04567     -5.7318806      0              57.059329      2066.9805    
    670000   302.33492     -5.6353927      0              57.634894      2097.5578    
    671000   292.91449     -5.5004349      0              55.798417      2055.4002    
    672000   299.63877     -4.977325       0              57.728731      2068.098     
    673000   298.11707     -5.2298841      0              57.157723      2004.8149    
    674000   298.74651     -4.6920137      0              57.827319      1994.6344    
    675000   304.12386     -4.6603792      0              58.984281      2167.7633    
    676000   303.63064     -5.6201747      0              57.921269      2122.632     
    677000   289.54716     -5.22813        0              55.366033      2066.1742    
    678000   307.54002     -4.0759534      0              60.283616      2162.5367    
    679000   303.71349     -3.5883699      0              59.970412      2045.1272    
    680000   294.62488     -5.5338544      0              56.122934      2067.0012    
    681000   297.65698     -5.8556248      0              56.435698      2099.1581    
    682000   308.23443     -4.8462005      0              59.658689      2115.7866    
    683000   307.404       -4.5597685      0              59.771336      2091.3413    
    684000   303.25516     -4.8653669      0              58.5975        2027.7723    
    685000   299.94793     -4.2612896      0              58.509467      2197.4303    
    686000   302.45183     -3.0010364      0              60.293715      2231.581     
    687000   299.84241     -5.5655594      0              57.183114      2052.0693    
    688000   295.08644     -4.9115498      0              56.841832      1982.7176    
    689000   296.98015     -5.8930784      0              56.256603      1890.8672    
    690000   289.92194     -4.541416       0              56.131179      2023.6       
    691000   297.60501     -6.9356294      0              55.344818      1954.0952    
    692000   297.96637     -5.3439371      0              57.012134      2066.7102    
    693000   311.7112      -4.3439921      0              60.888489      2164.2814    
    694000   298.06272     -4.7772683      0              57.598965      2030.022     
    695000   304.92254     -5.4217673      0              58.390036      2021.31      
    696000   308.21968     -4.6852693      0              59.816532      2065.882     
    697000   309.38022     -5.2982726      0              59.446398      2038.8213    
    698000   294.6311      -4.865238       0              56.792854      2146.4428    
    699000   301.11581     -3.9171131      0              59.098048      2204.9036    
    700000   301.87214     -4.7355538      0              58.437886      2029.0365    
    701000   298.19216     -4.9463341      0              57.456988      2085.9945    
    702000   305.55894     -4.125914       0              59.81907       2192.9876    
    703000   295.11957     -3.2749593      0              58.485355      2132.9361    
    704000   295.05751     -4.2435798      0              57.503747      1960.1801    
    705000   307.31291     -4.6965684      0              59.615472      2141.5592    
    706000   309.68956     -3.4738173      0              61.33559       2234.0764    
    707000   300.26119     -4.123514       0              58.712799      2144.7288    
    708000   301.82825     -4.5140121      0              58.650242      2029.7573    
    709000   307.92859     -4.1291256      0              60.31176       2114.6043    
    710000   291.90564     -3.9548286      0              57.1329        2124.7404    
    711000   302.50685     -4.6077084      0              58.698558      1994.8203    
    712000   299.78521     -2.8938397      0              59.842864      2209.5       
    713000   296.26335     -3.0820191      0              58.917656      2111.9754    
    714000   304.24034     -5.1924624      0              58.476576      2145.1101    
    715000   290.3315      -4.1091017      0              56.649202      2174.7803    
    716000   290.86845     -4.85757        0              56.013104      2118.3559    
    717000   295.26407     -5.2200425      0              56.570511      2061.3969    
    718000   301.98811     -4.8914257      0              58.306282      2097.095     
    719000   286.68675     -5.4175253      0              54.578034      1983.933     
    720000   292.67068     -5.3626908      0              55.885138      2017.7315    
    721000   300.81562     -3.7820511      0              59.170288      2135.1062    
    722000   299.55548     -6.6089455      0              56.079681      2040.116     
    723000   300.76196     -6.3346446      0              56.606465      1947.9199    
    724000   300.40312     -4.0324938      0              58.83352       2255.2509    
    725000   300.23928     -3.6433959      0              59.188332      2136.7647    
    726000   299.13381     -4.4182286      0              58.182154      2117.8707    
    727000   296.19778     -5.6553235      0              56.33063       2106.3263    
    728000   306.88957     -5.0613488      0              59.1621        2078.6666    
    729000   305.71348     -3.9750073      0              60.002318      2190.3355    
    730000   302.65461     -3.7159282      0              59.621261      2168.0196    
    731000   294.17809     -3.7621206      0              57.801168      2015.7477    
    732000   297.22577     -4.458843       0              57.742241      2026.3166    
    733000   309.43023     -4.2576594      0              60.497478      2137.1095    
    734000   301.71795     -4.7191443      0              58.422026      2124.6398    
    735000   295.72834     -6.8886328      0              54.999081      2007.7702    
    736000   299.98636     -5.405311       0              57.373486      2121.1298    
    737000   300.7795      -4.7194757      0              58.225304      2149.1694    
    738000   298.5218      -4.424978       0              58.047328      2135.0817    
    739000   299.54846     -6.0001492      0              56.687008      1951.1248    
    740000   298.8076      -5.7630221      0              56.769095      2036.4853    
    741000   294.15678     -3.8889035      0              57.669926      2133.4119    
    742000   303.5821      -5.1121018      0              58.419185      2073.3061    
    743000   293.58103     -4.7368704      0              56.70147       2127.8617    
    744000   303.45621     -6.0860343      0              57.418908      2117.4997    
    745000   294.78167     -3.9221097      0              57.767492      2122.8409    
    746000   303.40997     -2.4074038      0              61.087861      2235.8249    
    747000   308.23874     -5.1859752      0              59.319816      2009.9792    
    748000   301.32491     -5.4697215      0              57.589198      2098.1785    
    749000   305.77801     -2.5879692      0              61.402859      2195.2058    
    750000   293.22873     -3.9453014      0              57.419313      2142.5653    
    751000   297.86092     -3.2182299      0              59.115772      2175.986     
    752000   301.94323     -3.3632426      0              59.825074      2102.5467    
    753000   300.57187     -4.5202019      0              58.381127      2144.6228    
    754000   288.45857     -3.0140801      0              57.352272      2098.4413    
    755000   300.30536     -6.2188919      0              56.626664      2003.3062    
    756000   301.29596     -4.9808358      0              58.072026      2052.1163    
    757000   311.24391     -5.2177501      0              59.91694       2083.0653    
    758000   297.86299     -2.9979572      0              59.336478      2195.0596    
    759000   306.77303     -3.6927736      0              60.506285      2078.6498    
    760000   293.82563     -3.6563432      0              57.833186      2161.9265    
    761000   307.54478     -4.404961       0              59.955603      2181.842     
    762000   299.91749     -4.9194732      0              57.844912      2042.104     
    763000   295.64701     -6.6646394      0              55.206054      2007.4024    
    764000   293.10027     -6.2883515      0              55.049379      2016.3731    
    765000   306.48164     -4.3592537      0              59.778826      2150.2939    
    766000   307.62785     -6.1269377      0              58.251011      2143.8545    
    767000   302.56783     -5.635018       0              57.684009      2025.8513    
    768000   299.66858     -6.8094324      0              55.902862      1983.8294    
    769000   305.88204     -4.6628856      0              59.349714      2071.0773    
    770000   305.9532      -4.104857       0              59.922635      2007.5494    
    771000   311.31009     -4.1298997      0              61.018639      2127.0586    
    772000   305.22991     -5.6554944      0              58.220633      2046.8678    
    773000   299.37453     -5.3091313      0              57.341628      2022.9534    
    774000   294.16236     -4.9837033      0              56.576293      2017.7011    
    775000   310.09912     -3.7736452      0              61.121472      2129.4149    
    776000   300.68037     -3.8376228      0              59.086412      2123.4487    
    777000   294.02039     -6.1264391      0              55.403848      1990.0475    
    778000   307.0012      -3.4605891      0              60.786219      2093.4439    
    779000   308.06325     -4.7282782      0              59.740789      2084.2179    
    780000   296.1003      -3.9597615      0              58.005792      2109.0084    
    781000   304.65233     -4.4190142      0              59.336242      2033.3892    
    782000   295.93372     -4.0717486      0              57.858946      2042.3128    
    783000   294.40272     -5.879463       0              55.730834      2113.1594    
    784000   303.98672     -3.8321902      0              59.783772      2173.4997    
    785000   304.24076     -4.8831382      0              58.785987      2046.766     
    786000   301.67011     -4.7732058      0              58.357955      2132.7682    
    787000   292.04046     -6.311595       0              54.804346      1978.2831    
    788000   301.47121     -6.0123511      0              57.077186      2091.0434    
    789000   289.43748     -3.7246295      0              56.846582      2163.2212    
    790000   293.05707     -5.03033        0              56.298359      2063.6756    
    791000   301.06773     -6.1187774      0              56.886322      2073.8269    
    792000   304.27078     -5.3124241      0              58.362983      1997.4792    
    793000   300.07872     -5.8486716      0              56.949455      2108.6205    
    794000   303.40922     -5.8670972      0              57.628011      2033.4118    
    795000   303.05095     -4.2729006      0              59.147232      2057.491     
    796000   300.76797     -4.3007478      0              58.641619      2059.0698    
    797000   303.06372     -5.0821613      0              58.340642      2113.8899    
    798000   294.52916     -4.9159917      0              56.720766      2108.1388    
    799000   293.1201      -4.3586545      0              56.983226      2110.9993    
    800000   304.4847      -4.7347082      0              58.985466      2086.0516    
    801000   302.05572     -5.0397278      0              58.17213       2135.8063    
    802000   299.38618     -4.0409978      0              58.612199      2246.9212    
    803000   295.68332     -5.1161039      0              56.762187      2062.8259    
    804000   295.96048     -5.3695572      0              56.566736      1983.0867    
    805000   300.88963     -4.5518135      0              58.416014      2065.3892    
    806000   299.20927     -4.6743814      0              57.941794      2084.4295    
    807000   296.54573     -3.691172       0              58.367598      2066.6954    
    808000   310.96873     -5.2661222      0              59.81098       2063.9226    
    809000   292.01036     -3.557367       0              57.552276      2106.6007    
    810000   292.91877     -4.5432207      0              56.756528      2125.0223    
    811000   298.53239     -4.5325268      0              57.941996      2019.3539    
    812000   301.99597     -4.0513279      0              59.148026      2014.0595    
    813000   313.97885     -7.2405146      0              58.466522      2049.4573    
    814000   297.12956     -5.0392246      0              57.141725      2027.5093    
    815000   290.75068     -4.0939445      0              56.752083      2123.7439    
    816000   307.35027     -3.8199243      0              60.499935      2099.2011    
    817000   303.74793     -4.6135178      0              58.952472      2104.6839    
    818000   292.2134      -4.3992722      0              56.752862      2074.3865    
    819000   305.55495     -3.9774552      0              59.966694      2090.3728    
    820000   302.06284     -5.0022906      0              58.211057      2197.1673    
    821000   297.22484     -4.1485943      0              58.052294      2052.353     
    822000   312.46569     -5.5046038      0              59.885771      2118.6505    
    823000   302.48342     -5.0901027      0              58.211261      2064.7748    
    824000   298.31169     -3.4024992      0              59.025838      2154.359     
    825000   295.03196     -5.1214236      0              56.620556      2096.8179    
    826000   293.32252     -5.0336025      0              56.350638      2026.4728    
    827000   308.35596     -4.0199397      0              60.510382      2243.0527    
    828000   309.3498      -4.4033768      0              60.334928      2094.4918    
    829000   297.71057     -4.3556554      0              57.946883      2036.5675    
    830000   298.30135     -4.0256396      0              58.400532      2048.1085    
    831000   299.47776     -4.051503       0              58.62086       2140.2045    
    832000   295.63353     -5.0067017      0              56.861169      2139.1377    
    833000   303.77652     -5.2242336      0              58.34774       2034.266     
    834000   290.47588     -5.0948711      0              55.693649      2119.9245    
    835000   305.3306      -4.6754899      0              59.221708      2176.3616    
    836000   294.78772     -1.7053534      0              59.985514      2221.835     
    837000   296.79067     -3.9621078      0              58.147922      2179.6857    
    838000   309.87901     -4.8257806      0              60.023274      2035.8605    
    839000   307.54073     -5.4597287      0              58.899988      2138.2519    
    840000   302.3248      -5.7073076      0              57.560861      2032.9314    
    841000   295.61063     -4.9298488      0              56.933231      2119.5292    
    842000   302.74252     -4.9375405      0              58.418046      2153.3503    
    843000   308.39694     -6.6091672      0              57.929732      2046.3092    
    844000   318.0959      -4.9090169      0              61.659604      2222.5522    
    845000   296.81575     -4.5413598      0              57.573918      2127.9794    
    846000   299.06506     -5.0579971      0              57.527999      2109.495     
[...]
   1814000   304.33453     -4.7872102      0              58.901539      2005.0996    
   1815000   296.19761     -5.6688851      0              56.317034      1998.3731    
   1816000   288.87795     -4.4982651      0              55.955852      2097.4838    
   1817000   303.06964     -4.0362263      0              59.387816      2076.7327    
   1818000   292.75212     -3.1700331      0              58.094839      2106.8932    
   1819000   309.02079     -6.079598       0              58.589856      2139.5285    
   1820000   299.54093     -2.6902877      0              59.995294      2201.5692    
   1821000   311.09068     -3.6696259      0              61.432997      2069.7648    
   1822000   295.09955     -4.8499335      0              56.906191      2120.4739    
   1823000   292.99017     -5.5014926      0              55.813197      2065.0426    
   1824000   298.82841     -5.0331307      0              57.503341      2024.0437    
   1825000   300.80632     -4.7328531      0              58.21754       2293.8603    
   1826000   297.20883     -2.8712386      0              59.3263        2168.2268    
   1827000   294.42866     -3.3321424      0              58.283583      2135.6759    
   1828000   300.40606     -3.9009274      0              58.965703      2088.1776    
   1829000   305.10551     -5.1338063      0              58.716288      2115.28      
   1830000   299.08448     -3.3315561      0              59.258503      2165.6148    
   1831000   290.04941     -4.6361235      0              56.063147      2143.8945    
   1832000   306.05716     -4.2394934      0              59.809755      2118.3107    
   1833000   295.50719     -4.1859417      0              57.65549       2087.4027    
   1834000   311.41338     -3.4792552      0              61.690899      2091.523     
   1835000   302.37691     -2.6095728      0              60.669501      2177.706     
   1836000   303.48861     -5.9789899      0              57.532731      1961.575     
   1837000   291.63926     -5.5346334      0              55.497349      1998.8145    
   1838000   301.43198     -4.4857623      0              58.595563      2047.6283    
   1839000   296.92705     -5.151576       0              56.986993      2131.8913    
   1840000   307.09554     -4.2704719      0              59.996079      2094.5364    
   1841000   308.96045     -4.522861       0              60.133964      2108.3849    
   1842000   295.90684     -3.8672143      0              58.057854      2100.8132    
   1843000   298.4411      -4.8022892      0              57.65313       2138.7631    
   1844000   302.39628     -3.5769449      0              59.706182      2156.5962    
   1845000   297.21153     -3.3352562      0              58.862846      2114.8979    
   1846000   288.46637     -5.1307285      0              55.237256      1945.6114    
   1847000   298.26937     -5.2418169      0              57.177662      2000.0434    
   1848000   302.93333     -6.6220406      0              56.773477      1941.9986    
   1849000   294.35233     -5.2830407      0              56.316712      2072.4989    
   1850000   288.20303     -3.3896623      0              56.923213      2049.1809    
   1851000   294.98458     -3.3541222      0              58.377943      2055.3875    
   1852000   300.62338     -6.6375526      0              56.274556      2015.735     
   1853000   304.66117     -3.974609       0              59.782496      2236.322     
   1854000   299.2421      -4.3920049      0              58.23104       2080.7573    
   1855000   312.84082     -5.7033655      0              59.765513      2036.485     
   1856000   290.94558     -5.68268        0              55.204134      2028.7178    
   1857000   309.22628     -4.1496546      0              60.562801      2061.0032    
   1858000   302.5977      -5.3182126      0              58.007066      2034.597     
   1859000   308.86043     -3.8808569      0              60.755037      2175.4795    
   1860000   306.37247     -4.9760478      0              59.139185      2055.6717    
   1861000   287.74882     -6.3317184      0              53.886104      1898.7948    
   1862000   304.80075     -3.6405762      0              60.145741      2144.7409    
   1863000   292.27757     -3.4458188      0              57.719744      2149.7956    
   1864000   292.38241     -5.114161       0              56.073342      2069.4498    
   1865000   306.25248     -3.1443571      0              60.945764      2236.4763    
   1866000   313.70164     -3.9576526      0              61.691372      2083.8725    
   1867000   289.31254     -4.698099       0              55.846966      2078.9075    
   1868000   293.44736     -5.3367522      0              56.073616      2050.4346    
   1869000   304.32649     -3.4774131      0              60.209654      2208.4543    
   1870000   296.68102     -3.7836243      0              58.303458      2188.9174    
   1871000   299.30859     -4.861269       0              57.775692      2138.4116    
   1872000   290.46234     -2.1428801      0              58.642806      2177.778     
   1873000   300.62282     -4.2481164      0              58.663875      2086.2717    
   1874000   301.45927     -6.0516658      0              57.035371      2118.5096    
   1875000   303.7734      -3.8926829      0              59.678636      2166.5378    
   1876000   299.82218     -5.2290324      0              57.515406      2100.5941    
   1877000   297.52998     -4.0237707      0              58.240976      2033.3113    
   1878000   294.36688     -3.8875671      0              57.715231      2128.7607    
   1879000   305.10914     -4.2712709      0              59.579581      2093.0479    
   1880000   294.99165     -3.9948156      0              57.738729      2092.6963    
   1881000   306.0935      -5.4892489      0              58.567603      2083.5747    
   1882000   304.33762     -5.8511172      0              57.838279      2008.8007    
   1883000   292.30328     -3.936422       0              57.234522      2131.468     
   1884000   299.86399     -2.7567941      0              59.996396      2113.9852    
   1885000   294.90774     -4.7153219      0              57.000662      2142.8905    
   1886000   303.95426     -4.6443842      0              58.964786      2183.2645    
   1887000   300.01822     -3.9781417      0              58.807323      2153.4843    
   1888000   302.72073     -4.3873438      0              58.963682      2166.9264    
   1889000   298.1691      -4.6188701      0              57.779626      2110.2913    
   1890000   300.68076     -5.2942019      0              57.629915      2051.7109    
   1891000   299.53356     -5.0726542      0              57.611386      2087.4048    
   1892000   299.7321      -4.3057609      0              58.419828      2197.9736    
   1893000   310.31396     -5.5119044      0              59.428172      1999.3684    
   1894000   293.38872     -6.6355148      0              54.76258       2027.1642    
   1895000   302.80822     -4.6373115      0              58.732023      2096.0843    
   1896000   299.75763     -4.8499883      0              57.880944      2121.9601    
   1897000   296.18504     -2.8738327      0              59.109454      2164.2976    
   1898000   322.06193     -5.5946067      0              61.803993      1987.7723    
   1899000   301.65067     -4.4958772      0              58.631215      2125.5745    
   1900000   303.81934     -4.0073802      0              59.573555      2045.7884    
   1901000   297.51347     -3.605892       0              58.655399      2091.9076    
   1902000   306.09185     -5.2352232      0              58.821284      2124.3985    
   1903000   297.51705     -4.656004       0              57.606036      2040.0465    
   1904000   303.98716     -4.5943435      0              59.021711      2038.3215    
   1905000   299.25583     -6.2674345      0              56.358484      2263.4759    
   1906000   297.01456     -4.9495296      0              57.207354      1966.9305    
   1907000   293.81296     -5.5570059      0              55.929871      2024.0941    
   1908000   291.24315     -4.0986547      0              56.850433      2084.2737    
   1909000   303.44953     -5.4856431      0              58.0179        2061.4952    
   1910000   304.63957     -3.7574171      0              59.995167      2077.6087    
   1911000   294.9371      -3.6768318      0              58.045297      2105.7236    
   1912000   310.6701      -4.4937841      0              60.520824      2131.0153    
   1913000   301.7903      -5.9519692      0              57.204343      2058.3569    
   1914000   295.98145     -5.1366652      0              56.804017      2204.7583    
   1915000   301.79057     -4.9189614      0              58.237408      2174.1776    
   1916000   306.17225     -4.7972014      0              59.276132      2076.9144    
   1917000   295.48571     -3.2499687      0              58.586969      2177.3511    
   1918000   294.17698     -4.7728052      0              56.790252      2034.85      
   1919000   297.06329     -4.4964398      0              57.670642      2138.2641    
   1920000   300.82006     -3.8812138      0              59.072055      2215.9521    
   1921000   304.48393     -4.9465416      0              58.773472      1995.1731    
   1922000   305.266       -4.3011541      0              59.582526      2110.8417    
   1923000   308.47959     -6.4800535      0              58.076141      2032.5181    
   1924000   304.60676     -5.2257282      0              58.51999       2139.9074    
   1925000   300.90724     -5.3611051      0              57.610408      2023.9143    
   1926000   301.03361     -3.7507607      0              59.247198      2176.4145    
   1927000   286.39448     -4.1225607      0              55.811835      2139.1706    
   1928000   297.9485      -5.5115805      0              56.84075       2074.2904    
   1929000   297.24758     -4.8712944      0              57.334352      2097.1176    
   1930000   294.0254      -2.8285615      0              58.702774      2237.6723    
   1931000   294.43039     -5.9081768      0              55.707911      1967.1484    
   1932000   303.09149     -3.1281378      0              60.300478      2054.0794    
   1933000   299.22623     -6.1477215      0              56.472002      1994.0501    
   1934000   286.93885     -4.3721281      0              55.676188      1963.6758    
   1935000   296.36347     -4.9218398      0              57.098788      2106.9261    
   1936000   299.50193     -4.5887149      0              58.088705      2003.5856    
   1937000   288.18559     -3.940227       0              56.368998      2062.3348    
   1938000   298.04932     -5.9663494      0              56.407081      2006.3838    
   1939000   292.15117     -6.1070441      0              55.032068      2040.5626    
   1940000   306.70909     -1.7568699      0              62.428809      2165.6789    
   1941000   301.98453     -4.5701116      0              58.626849      2144.6406    
   1942000   303.39216     -3.4897544      0              60.001782      2172.7818    
   1943000   296.48215     -4.8033068      0              57.242157      2115.6815    
   1944000   302.61459     -4.4922153      0              58.836597      2073.9311    
   1945000   301.28776     -5.4403857      0              57.610759      2173.3699    
   1946000   293.24833     -6.6586076      0              54.710109      2012.4993    
   1947000   306.92724     -4.626423       0              59.604909      2056.6796    
   1948000   297.69067     -6.286383       0              56.011992      2054.0911    
   1949000   296.13755     -5.0754004      0              56.897948      2077.4235    
   1950000   296.87753     -5.5172666      0              56.610939      2022.068     
   1951000   302.04353     -3.4230258      0              59.786281      2175.5725    
   1952000   301.16047     -3.8208614      0              59.203646      2074.6168    
   1953000   298.78212     -5.3333579      0              57.193426      2115.2582    
   1954000   295.9703      -4.9769412      0              56.961407      2083.4913    
   1955000   287.86811     -5.7214717      0              54.521313      2134.2179    
   1956000   299.2868      -5.6237913      0              57.008609      2048.2521    
   1957000   311.48575     -4.473772       0              60.711528      2104.8495    
   1958000   307.47154     -4.7586649      0              59.586573      2000.7838    
   1959000   298.32265     -3.4161814      0              59.014448      2127.8688    
   1960000   300.87542     -4.3604697      0              58.604385      2179.1697    
   1961000   302.60309     -5.6753901      0              57.651017      2068.3764    
   1962000   296.79361     -5.0411022      0              57.069541      2164.1791    
   1963000   305.20605     -3.7913324      0              60.079801      2175.1923    
   1964000   306.9667      -3.3651358      0              60.874452      2186.9654    
   1965000   298.34493     -4.3615257      0              58.073767      2061.5285    
   1966000   300.49567     -4.0513702      0              58.834013      2135.5785    
   1967000   294.93633     -3.7624422      0              57.959525      2080.2056    
   1968000   315.50173     -5.1872627      0              60.83847       2044.2137    
   1969000   293.26389     -4.6337118      0              56.73826       1990.2935    
   1970000   306.71257     -5.0277777      0              59.158629      2174.2785    
   1971000   287.72582     -3.8624626      0              56.350545      2086.1586    
   1972000   303.17462     -5.0185096      0              58.427503      2098.8288    
   1973000   302.69002     -5.0520001      0              58.292599      2034.7295    
   1974000   306.54474     -3.8073206      0              60.343963      2256.8947    
   1975000   297.10807     -4.9641832      0              57.212269      2048.6661    
   1976000   300.97133     -4.3990828      0              58.585842      2139.7858    
   1977000   303.53705     -5.1431613      0              58.378698      1952.9847    
   1978000   294.16084     -1.0708883      0              60.488789      2266.7519    
   1979000   296.50623     -4.205784       0              57.844719      2090.1445    
   1980000   308.32121     -4.3483522      0              60.174697      2159.5801    
   1981000   312.59864     -3.6554887      0              61.762709      2116.8938    
   1982000   302.02792     -3.1717944      0              60.034246      2127.1896    
   1983000   306.16873     -5.2698387      0              58.802758      2038.4309    
   1984000   304.2652      -5.0733142      0              58.600925      2104.3804    
   1985000   299.56203     -4.1856476      0              58.504351      2088.7942    
   1986000   300.6392      -5.757905       0              57.157515      2039.5824    
   1987000   307.4506      -3.8478504      0              60.493004      2151.2087    
   1988000   302.23712     -4.7788083      0              58.471011      2140.4607    
   1989000   310.79739     -4.1318114      0              60.909435      2036.0425    
   1990000   282.47939     -5.7170496      0              53.398026      2058.2043    
   1991000   295.96347     -4.3854227      0              57.551496      2118.9892    
   1992000   296.16699     -3.2376455      0              58.741865      2205.4583    
   1993000   307.46203     -6.3345532      0              58.008694      2058.2508    
   1994000   302.35017     -4.5019265      0              58.771551      2164.6136    
   1995000   297.32738     -4.6696592      0              57.552689      2049.889     
   1996000   301.36868     -4.6851639      0              58.382916      2046.5267    
   1997000   293.62603     -2.6724538      0              58.775303      2074.1773    
   1998000   312.18549     -3.6508193      0              61.680917      2193.6164    
   1999000   304.79921     -3.1258822      0              60.660112      2106.1633    
   2000000   301.67403     -3.0136001      0              60.118381      2223.3655    
   2000101   297.93735     -4.7039458      0              57.64605       2135.7018    
Loop time of 13910 on 16 procs for 2000000 steps with 1620 atoms

Performance: 6.211 ns/day, 3.864 hours/ns, 143.781 timesteps/s
99.9% CPU use with 16 MPI tasks x 1 OpenMP threads

MPI task timing breakdown:
Section |  min time  |  avg time  |  max time  |%varavg| %total
---------------------------------------------------------------
Pair    | 11053      | 11842      | 12689      | 599.4 | 85.14
Bond    | 1.5892     | 1.6198     | 1.7003     |   2.4 |  0.01
Neigh   | 16.257     | 16.824     | 17.475     |  11.5 |  0.12
Comm    | 1143.6     | 1990.7     | 2781.4     |1463.5 | 14.31
Output  | 1.2413     | 1.242      | 1.2445     |   0.1 |  0.01
Modify  | 31.449     | 31.943     | 32.325     |   5.6 |  0.23
Other   |            | 25.21      |            |       |  0.18

Nlocal:         101.25 ave         108 max          94 min
Histogram: 2 0 3 0 3 1 0 4 1 2
Nghost:        5051.25 ave        5086 max        5019 min
Histogram: 1 1 2 5 1 1 1 1 1 2
Neighs:        51661.1 ave       58691 max       45669 min
Histogram: 3 2 0 4 0 1 2 0 1 3

Total # of neighbors = 826577
Ave neighs/atom = 510.23272
Ave special neighs/atom = 0
Neighbor list builds = 10406
Dangerous builds = 0
comm_modify cutoff 27.58
compute myRDF all rdf 1129 cutoff 22.58
fix 2 all ave/time 1 1 1 c_myRDF[*] file ljg2_nvt_41rdf.rdf mode vector
run 0 pre yes post no
Generated 0 of 0 mixed pair_coeff terms from geometric mixing rule
WARNING: Compute rdf cutoff less than neighbor cutoff - forcing a needless neighbor list build (src/compute_rdf.cpp:179)
Neighbor list info ...
  update every 1 steps, delay 0 steps, check yes
  max neighbors/atom: 200000, page size: 2000000000
  master list distance cutoff = 27
  ghost atom cutoff = 27.58
  binsize = 13.5, bins = 4 5 4
  4 neighbor lists, perpetual/occasional/extra = 3 1 0
  (1) pair lj/cut, perpetual
      attributes: half, newton on
      pair build: half/bin/newton
      stencil: half/bin/3d
      bin: standard
  (2) pair gauss/cut, perpetual, copy from (1)
      attributes: half, newton on
      pair build: copy
      stencil: none
      bin: none
  (3) pair gauss/cut, perpetual, copy from (1)
      attributes: half, newton on
      pair build: copy
      stencil: none
      bin: none
  (4) compute rdf, occasional
      attributes: half, newton on, cut 24.58
      pair build: half/bin/newton
      stencil: half/bin/3d
      bin: standard
Per MPI rank memory allocation (min/avg/max) = 3.053e+04 | 3.053e+04 | 3.053e+04 Mbytes
   Step          Temp          E_pair         E_mol          TotEng         Press     
   2000101   297.93735     -4.7039458      0              57.64605       2135.7018    
Loop time of 4.54138e-06 on 16 procs for 0 steps with 1620 atoms

uncompute myRDF
unfix 2
write_data ljg2_nvt_41/ca_md.data nocoeff nofix
System init for write_data ...
Generated 0 of 0 mixed pair_coeff terms from geometric mixing rule
Neighbor list info ...
  update every 1 steps, delay 0 steps, check yes
  max neighbors/atom: 200000, page size: 2000000000
  master list distance cutoff = 27
  ghost atom cutoff = 27.58
  binsize = 13.5, bins = 4 5 4
  3 neighbor lists, perpetual/occasional/extra = 3 0 0
  (1) pair lj/cut, perpetual
      attributes: half, newton on
      pair build: half/bin/newton
      stencil: half/bin/3d
      bin: standard
  (2) pair gauss/cut, perpetual, copy from (1)
      attributes: half, newton on
      pair build: copy
      stencil: none
      bin: none
  (3) pair gauss/cut, perpetual, copy from (1)
      attributes: half, newton on
      pair build: copy
      stencil: none
      bin: none
Total wall time: 3:51:51
