LAMMPS data file via write_data, version 23 Jun 2022, timestep = 2000101

1620 atoms
1 atom types

0 52.794504272175 xlo xhi
0 54.794296100667 ylo yhi
0 45.195295323908 zlo zhi

Masses

1 40.078

Atoms # full

90 0 1 0 25.97806594460272 3.4494419876275906 5.9465830796513774 -1 0 1
1313 0 1 0 6.331191686512081 0.5654595045680635 16.004870527157173 0 0 -1
390 0 1 0 11.634669321051984 2.466367932605245 21.37366621260353 1 -1 2
1494 0 1 0 7.924725315836513 11.578532018074448 7.89255109801795 1 1 0
4 0 1 0 19.85844984874438 11.590847391183683 16.0015492294744 0 -1 0
2 0 1 0 11.873113064467002 12.82688627353628 2.578848515801052 -1 -1 0
1497 0 1 0 3.028856633842961 1.6436460594487312 16.713187471426178 1 1 1
851 0 1 0 19.043994173323277 5.693783735503501 18.411237881403018 -1 -1 -1
1156 0 1 0 20.89271572213772 2.642935420927274 18.27501792889061 0 1 2
1252 0 1 0 15.789922711880457 6.535585092731928 0.3043334288359791 -1 1 0
1056 0 1 0 6.0344750398899265 10.951462370595403 0.6055479280828896 -1 0 1
545 0 1 0 22.0771998939192 9.554524458660815 0.28034309261109525 3 0 -1
1286 0 1 0 9.033876758534886 8.57922510486272 19.64287353430756 0 0 0
1077 0 1 0 16.666741101517317 9.116119893605282 7.880898923022436 2 -1 -1
520 0 1 0 3.5133759441544656 7.284468355478041 7.862653471363307 0 0 0
974 0 1 0 6.355249123815354 4.220145364597273 3.768785300388192 2 -1 1
546 0 1 0 23.401318797767832 5.454461556426775 18.06335477138657 0 0 0
366 0 1 0 11.470089169987434 6.4691034887410765 8.98325417736501 0 1 0
97 0 1 0 2.040959980791615 10.37020724946414 7.07451636010484 0 1 1
827 0 1 0 21.388045426048944 9.504377142395967 20.419865371246352 -1 0 0
621 0 1 0 10.294233679073919 10.343267352370958 15.017017948402076 -2 -1 1
18 0 1 0 5.1549865142539755 7.000031130980566 11.476985071790681 1 -2 -2
85 0 1 0 12.868484620031893 6.082079554487131 3.115223139471 0 0 3
868 0 1 0 2.7366943551888756 13.543766498834737 12.535184104255853 1 0 1
1448 0 1 0 10.85452676935149 0.8819507144342029 5.008340102802067 0 2 -1
110 0 1 0 12.016095537751607 0.41782620492313133 10.806714410303526 0 0 0
941 0 1 0 6.647605386629174 8.452727087884169 16.28883822238294 0 2 0
1501 0 1 0 7.769349852850318 8.074301428838993 2.9399327623709355 1 1 0
120 0 1 0 5.324221631533839 0.9348637546402202 20.91206196455849 0 0 2
670 0 1 0 25.632993832670884 13.161074621655171 21.419253164206516 1 1 2
122 0 1 0 9.123810907645673 0.438925943351906 19.358509183312474 -1 -1 -2
1154 0 1 0 10.829966299481791 12.152035771585464 21.171872658139435 1 1 2
181 0 1 0 12.31259421015731 9.324682199797389 5.789130427681206 2 0 1
1105 0 1 0 25.632363923548557 5.149252556619519 10.175754559599532 -1 -2 -1
521 0 1 0 15.080541987810197 5.050727276762534 8.441072784729704 0 0 0
370 0 1 0 16.916300707852997 8.474220865993125 16.828357332469952 -1 0 -1
1067 0 1 0 1.668481017126144 0.7243050722671087 7.754351537657361 0 -1 0
1345 0 1 0 4.810742266082879 12.831245945652832 6.705988074192932 1 2 0
663 0 1 0 18.266051541886906 13.08730762020919 2.208349868111901 0 0 1
1003 0 1 0 18.78502505706513 8.91230814920415 1.6121199311171692 2 0 -1
562 0 1 0 10.568300830967566 4.976437932966037 13.449618742655327 0 0 0
200 0 1 0 20.6633615603107 10.58909912640676 7.677417190565922 1 1 1
877 0 1 0 25.26142896375038 0.08727802310250356 16.132722349608592 0 0 1
107 0 1 0 7.409419104272886 4.533747369840049 15.420854501803257 -1 -1 0
790 0 1 0 19.953906225489156 4.661213810422992 5.061496067274976 0 0 1
1446 0 1 0 21.90767521060109 5.781298467492327 8.443177009545494 0 0 1
262 0 1 0 7.955429779651004 3.8046494917455242 19.685738575207033 1 0 -2
154 0 1 0 14.801733524987045 3.3314725976382946 14.051618179877607 0 1 0
1040 0 1 0 13.643809538063984 11.052381474789193 17.28947420400115 0 0 0
958 0 1 0 24.29660597049172 7.799503336406832 15.40700934049136 0 2 1
671 0 1 0 21.75401314899627 8.147970697564356 4.053417127951021 0 0 1
1416 0 1 0 13.935952893537957 3.922776811083876 18.070485311834666 0 2 1
391 0 1 0 15.655625145511005 1.965886767903524 6.359158123961931 1 1 0
1191 0 1 0 23.424511700181576 12.648101969894064 2.372721909247345 0 -2 2
1565 0 1 0 23.464924944516504 11.538110898052839 17.92780098107445 1 1 0
1278 0 1 0 3.38720735061997 6.503028143557138 21.531695049335838 1 0 -2
1383 0 1 0 16.078634806830475 2.1480142633988173 21.23623733428537 -2 2 1
1493 0 1 0 2.5398459333407453 4.628503326193629 13.262351200824039 1 1 -1
1296 0 1 0 16.317208932184162 7.76253373377748 4.266559019743979 1 2 -3
1197 0 1 0 12.888005733564082 12.479562930446836 8.433302671142608 1 1 1
1199 0 1 0 3.2813911893294687 10.022101394813479 13.578874884914429 0 0 0
531 0 1 0 13.826451016996543 7.070061972029681 19.955225081872843 1 0 1
887 0 1 0 14.952272401222437 13.249096991723755 1.1215391080115078 2 0 0
598 0 1 0 6.723927582259652 2.917782473024899 7.337887404593664 1 1 0
835 0 1 0 9.001768369726564 1.583534008778162 13.562041769877377 1 1 0
1172 0 1 0 24.7849325583377 7.417827754000273 1.8870001228518778 -2 0 2
394 0 1 0 14.312284236531712 7.03339407385286 13.249314925321588 0 2 2
221 0 1 0 5.094796230267704 0.8955881589010656 1.9970948909854778 2 -1 0
161 0 1 0 9.500407319790522 2.545079896552245 9.748451587133474 -1 0 2
1543 0 1 0 15.149133956989925 11.132987860160945 11.771384807227614 1 0 1
732 0 1 0 6.139852431845993 0.37158538526954904 11.291136586305226 1 1 0
622 0 1 0 8.444492370037127 8.412554006618643 10.021426785070895 1 1 1
1373 0 1 0 3.1711888438853975 9.414508109265798 17.48880738632812 0 1 2
64 0 1 0 7.291137592732781 10.488103257503091 22.42937025403917 -1 0 -1
422 0 1 0 18.074546726749 11.120685921294797 20.03453473328301 -2 1 1
709 0 1 0 0.39241838763275827 11.066879252238737 10.536513706585481 2 1 -1
409 0 1 0 19.178168691756007 11.23837039652896 11.389533254711136 2 0 0
1185 0 1 0 18.883518632948146 0.8686929151389543 7.199401086886839 0 1 0
1062 0 1 0 22.846682432987507 10.62068283964278 11.889901708562649 0 -1 0
774 0 1 0 24.374411753515407 12.056377193329897 8.924298552668244 -2 1 0
1470 0 1 0 11.31859108893346 6.734527990122536 16.5892305620854 -1 1 -1
696 0 1 0 20.017076879173118 8.22720716345593 13.479535773136924 2 2 2
617 0 1 0 6.630557168162623 13.685990392508137 13.986115772622329 0 1 1
222 0 1 0 9.809908738925856 7.8207321673978925 0.4085919191575378 3 0 -1
1447 0 1 0 20.064714550480698 2.6050060894580107 11.138258801459406 0 1 0
672 0 1 0 9.336072966499634 2.2947891698913985 0.9078672821724104 1 -1 -1
555 0 1 0 24.453258644748757 8.194572109141433 8.246383289269684 -1 -1 1
1244 0 1 0 18.390027894083076 0.8182865358569902 16.43340935401827 2 -1 1
1273 0 1 0 21.696234293203197 4.237257937998679 13.917385077253273 2 1 0
81 0 1 0 1.68853855418246 5.765348369501268 4.0602018225796535 2 0 -1
1358 0 1 0 2.358640190734399 11.981542005025455 19.73229433272806 2 0 -1
189 0 1 0 25.733334520688025 10.179866305118649 4.958947745632712 0 1 0
170 0 1 0 8.014560929316957 12.313045385897015 17.178568789103064 1 -1 -1
1174 0 1 0 0.22140722114363212 0.5163932957247824 19.08160893910252 2 -1 -1
577 0 1 0 0.6875494104192602 4.711280801407477 9.21081999165678 1 0 1
400 0 1 0 25.275555948590046 11.316867948264743 14.525590002177806 -1 0 1
634 0 1 0 14.713716954867708 1.5708562946860407 0.9309998507708582 -3 0 1
1187 0 1 0 16.91712627026864 12.680681612150702 6.247630045709403 0 0 0
769 0 1 0 15.380723648280505 13.44248430537322 20.57168036061258 2 1 -1
1055 0 1 0 0.29557637002634957 5.067696096044773 0.7350458999839781 1 2 0
184 0 1 0 23.78349772079607 0.07698239458173362 7.150268350998119 0 -1 1
26 0 1 0 18.158393671605502 4.918982116044622 21.96061911747266 2 -1 0
507 0 1 0 21.607625979011168 0.0926062731168963 21.16165632959968 -1 -1 -1
1248 0 1 0 5.319157391556948 5.950568450697669 36.50373227099155 1 -1 1
1274 0 1 0 25.905017647835933 13.066664051820903 36.94437004675596 2 0 -1
494 0 1 0 1.1936840971342393 2.492224824319687 23.342981060650885 -1 1 1
1603 0 1 0 12.446589452329402 3.5328709454861436 43.936896382027335 1 1 0
1390 0 1 0 9.127298850776066 1.014420588460003 30.632876426124664 1 0 -1
649 0 1 0 25.26274601060816 0.33013935699835856 37.721375912244426 0 -1 0
1048 0 1 0 14.608345390675137 5.495321874444053 34.63671151627016 2 0 -1
235 0 1 0 8.403020630436437 7.8497221888511355 33.20128934586742 -2 1 -1
730 0 1 0 15.278874711568642 12.109053646577417 40.18920017158724 -2 1 0
360 0 1 0 21.339240021182782 3.011058265288862 29.00855008902005 -1 1 0
112 0 1 0 4.001191859797914 7.111057695987345 25.993997183622103 2 0 3
1512 0 1 0 20.298524571074662 0.9211226589993724 32.8732021873485 1 1 -1
1075 0 1 0 10.783563616005543 0.5586823946102906 33.64150879806049 1 0 0
34 0 1 0 9.378079193780309 10.426711445517038 41.78079115196371 1 0 -2
518 0 1 0 5.914628296702837 5.982877369390579 44.94794363111037 -1 0 -2
126 0 1 0 16.81787091727617 0.07538828779380496 34.62162685303913 1 2 0
541 0 1 0 26.345689341851255 1.7525074079289569 25.113258514560375 0 0 2
39 0 1 0 9.151949709910818 5.9670174939906255 23.175769856390993 1 0 1
1115 0 1 0 8.587408431157979 5.692714506488349 42.326311751912954 1 -1 -1
193 0 1 0 15.560822906590507 10.64114320795915 31.91446844408585 -2 2 -1
209 0 1 0 5.465167815620953 12.91186753785398 39.599129575161726 1 -1 0
901 0 1 0 26.084330229313434 7.079382868782263 30.81776645852231 -1 2 0
210 0 1 0 2.4702010179549734 9.113265045112456 31.570082673183315 0 1 3
28 0 1 0 6.281035449232202 12.152948545078909 35.512971410624765 1 -1 -1
152 0 1 0 9.98325815919857 12.150384446803134 35.93081520840742 2 0 0
516 0 1 0 1.8166579982914723 12.929632347512477 37.72272216322753 0 0 -1
1360 0 1 0 19.367786908793175 0.1320035295821469 24.7639450976233 1 0 -1
756 0 1 0 22.71584426993774 6.880102233619109 38.094715496961605 1 1 -1
1398 0 1 0 20.07305867306596 12.099269044772544 43.26101772329429 1 1 -1
1339 0 1 0 2.978835035405464 8.530320527872965 41.67229474472687 0 2 2
513 0 1 0 4.900085161223333 2.260135637295753 24.53943062179198 1 1 0
1429 0 1 0 23.050722826377005 9.575052554872196 41.61992739096295 0 1 -2
452 0 1 0 23.716108006123505 4.410082418288344 40.75607377496966 1 1 -1
464 0 1 0 13.202062445623264 8.33869127905707 27.06831835096381 -1 0 0
460 0 1 0 10.716608553107198 4.758590471671676 33.583890087616794 1 0 0
940 0 1 0 13.478455703212836 2.292213681472774 24.475498208201756 -1 0 1
362 0 1 0 22.155519934130012 1.1431171045330162 41.16503731631717 0 -1 0
148 0 1 0 5.543477571062297 11.989313109315898 27.11535096280888 0 1 1
818 0 1 0 9.548403455714427 2.469536399166228 25.047392539710177 -2 2 -1
704 0 1 0 7.901557243963895 0.8829978615669197 41.68114019644735 -1 1 -1
1184 0 1 0 16.682315352155758 1.2480849394528504 42.85603562825623 -1 1 0
1594 0 1 0 7.848367331962755 8.087172700068875 27.419807507318968 0 1 1
1093 0 1 0 3.0569292242161334 5.144337625348525 39.82248362226323 -1 1 0
699 0 1 0 2.710225895815668 13.502736008246302 31.363257115009773 1 0 1
1478 0 1 0 14.038687331785976 13.45745430108409 34.70280584098212 1 2 0
1575 0 1 0 26.3388672216713 2.681698489101223 43.52332350875668 0 1 0
1224 0 1 0 13.003506404678449 10.581358049035014 24.150476076507093 1 0 1
128 0 1 0 19.517006011316294 4.169812431843312 36.867327809428666 1 0 0
286 0 1 0 23.315263852934585 3.7144942400664607 35.362396003579924 1 1 1
1402 0 1 0 3.133256943829768 1.554362449872536 34.500824936122854 2 -1 0
807 0 1 0 5.884061443102469 9.619677995076506 30.33024355207537 -1 1 -1
363 0 1 0 21.36165100783365 10.144363775052875 23.996180598185028 -1 0 2
964 0 1 0 11.58261856610252 9.849003650629543 29.94678052013186 1 -1 1
536 0 1 0 7.412183175020678 9.426814006762267 37.97162655424326 -1 0 -1
1132 0 1 0 17.694039950421214 3.736674720877324 27.02283679363942 0 -2 1
780 0 1 0 20.315840517431226 0.7814628540294436 44.46585409926968 -1 0 -1
383 0 1 0 6.509464405996572 0.3169797649383477 37.89427889557536 0 1 0
926 0 1 0 1.3530162025391856 4.345043839489042 33.03005890070545 1 0 1
1357 0 1 0 17.797810636832274 8.14666953305292 27.04308508328546 1 0 1
642 0 1 0 16.900228305939052 11.644104417559184 28.170823372010915 0 1 1
873 0 1 0 8.758021613499121 11.390458091086252 32.43575049139931 1 1 -2
691 0 1 0 16.409397892286915 4.513378306629688 31.226446758383073 1 1 0
438 0 1 0 19.225106109739563 9.605947292769555 37.38801005047032 0 1 1
275 0 1 0 17.96996136389766 0.6487791599388777 29.845614785792716 -1 -1 -1
623 0 1 0 9.636295887109043 1.8389360734880573 36.70635576549758 0 1 -1
1573 0 1 0 6.905054743593207 2.829657107423524 33.604442539744774 2 1 -1
1475 0 1 0 14.202609844033626 7.400960019738744 31.434007052073202 1 0 -1
1173 0 1 0 2.364668682554268 11.019664643364726 44.58788145489836 2 -1 0
572 0 1 0 1.0237130140561195 2.544732861398187 27.13035657370118 2 0 -1
1221 0 1 0 13.840858273096263 3.7247395183939225 40.11846974965785 -1 0 1
51 0 1 0 20.63407447913283 13.220481849803832 34.306264326642555 0 0 -2
1108 0 1 0 16.092176267577567 8.705519820589968 35.09684447092637 0 0 -2
641 0 1 0 23.259893580893316 10.95800556143026 34.379580927633235 -1 1 0
71 0 1 0 3.7070944149376266 2.8569265718453933 44.27404067242264 1 0 -1
1004 0 1 0 19.95554781680291 5.119526016465738 31.350998455263095 1 -2 1
669 0 1 0 21.08102459693435 7.560582340865497 34.42266547897044 0 1 0
353 0 1 0 24.32629032900097 5.0001591413807205 23.30520109651736 -2 2 -1
839 0 1 0 13.721846546999926 8.645644494808126 39.59276423252374 1 1 -2
723 0 1 0 17.0732366345807 13.442668823346018 25.198518831556438 0 1 -1
87 0 1 0 13.053362213376653 10.352931924291612 36.62338350991251 1 1 1
1006 0 1 0 22.85621106955399 7.906063297697491 28.240775817272418 1 1 0
697 0 1 0 0.4710143750269388 9.111429219628862 28.207095709684133 1 1 0
1299 0 1 0 16.663730693255612 8.20441545376222 23.324063471571584 1 3 -1
55 0 1 0 4.960295171137846 6.5089680205692435 32.94066751108835 0 1 -2
388 0 1 0 13.102146482795968 3.203742856997665 29.358223317562892 -1 0 -1
973 0 1 0 1.7827379286231486 1.908235675252866 38.617840186021624 1 0 0
399 0 1 0 21.17557452497688 3.638165075081783 23.548671202159536 -1 0 0
899 0 1 0 9.93932824764873 4.46173617619134 28.51419161140134 1 1 -2
675 0 1 0 22.51292781352887 11.871216041604308 38.67021217015903 -1 2 0
303 0 1 0 10.389908245430963 7.4841847345160195 36.715064107987175 0 -1 -1
392 0 1 0 18.67904333887952 4.481810154832864 44.279811176135574 2 -1 0
487 0 1 0 4.628768420978188 3.756074578831437 28.0043938189556 0 2 0
493 0 1 0 17.046007057612538 6.13035856246526 39.29780498109634 0 2 0
155 0 1 0 26.127371391756512 12.118834890680592 43.14991632005091 1 1 -1
630 0 1 0 19.482253973913338 9.824116476830623 31.491996363853335 -1 1 0
581 0 1 0 0.7536335659948037 8.183567352246486 38.86599899133966 0 2 1
1270 0 1 0 22.094482592437963 4.693388834447564 43.78587047886029 0 0 0
1051 0 1 0 17.272332576276177 13.209237773925091 36.877349147281436 2 2 -2
434 0 1 0 24.53096022679999 2.8460784267173516 31.34843941183295 0 0 0
1251 0 1 0 12.059327599298197 13.179069028874515 42.84274977558315 1 -1 -1
310 0 1 0 12.474680028189438 6.478148666344254 24.127841825714455 -1 -1 0
442 0 1 0 2.1041372350545093 9.579166997147835 35.592202482342834 0 -1 1
1205 0 1 0 21.64889763406715 11.897515446489994 28.722139199130726 1 1 -1
1279 0 1 0 3.366446286840796 0.2331373321802677 28.88502567075417 3 1 1
1471 0 1 0 13.318863345504456 10.012030498563973 44.83539274743811 0 2 -1
1386 0 1 0 4.6217196000618355 12.983108530733382 22.615035318872682 3 1 -1
1330 0 1 0 23.63898691067138 21.322289975517073 4.78784836144871 0 2 1
627 0 1 0 8.453368121347275 26.89323362246003 17.30452924446181 1 1 3
662 0 1 0 16.41731715351307 15.19908774480789 13.439912112577815 1 2 0
834 0 1 0 21.067455207769143 25.005335439619426 7.811863392900401 0 0 -1
1539 0 1 0 0.7701397647757661 25.682952081849532 22.054954422144064 0 1 0
855 0 1 0 9.4139419515079 15.90152343683055 15.909621986546062 1 -2 -2
1263 0 1 0 10.563003499896668 19.52861778765689 8.443102423973789 -1 2 -2
1450 0 1 0 25.28445406963786 16.265308254836757 4.82692270942008 -1 1 0
10 0 1 0 14.39850033127277 14.902781929395385 16.594812458310813 0 -1 0
202 0 1 0 1.5747613611613258 24.96811979257859 9.81442166687118 0 0 0
1247 0 1 0 1.7653094668778853 21.449278494167075 2.4571146895613056 0 0 0
1084 0 1 0 6.571835868218484 18.92516957269648 13.879060469832796 1 -1 -1
917 0 1 0 13.20832532266645 23.615458304691888 20.605541337829553 0 0 1
1212 0 1 0 10.633971388253881 23.824012995974524 0.4169048056526685 2 -1 0
412 0 1 0 11.215914523504402 26.097910125551184 4.072792208093819 0 -1 1
419 0 1 0 16.365396180848023 25.015769629529245 9.25764150752309 -1 0 0
492 0 1 0 20.997405077355296 20.105413656826563 18.44298002687786 -1 -1 -1
1109 0 1 0 2.628127154409479 18.27565417273227 0.5857294069555038 2 -1 1
1074 0 1 0 8.9800091347482 18.942939033812543 18.664752598001172 3 1 0
389 0 1 0 19.50868081027703 26.723263103341633 4.2343436339728395 0 -1 1
1264 0 1 0 24.856979971313088 22.56657344966898 15.412073865558025 -1 -1 -3
1551 0 1 0 15.518592192650354 25.405748928966627 5.673526949382397 1 1 0
1319 0 1 0 3.813996881826971 25.765195659704126 6.572371538637795 2 -1 0
1303 0 1 0 21.00519192303149 23.91491748001344 11.239465961050172 0 0 -3
791 0 1 0 1.2808012446410542 24.522879392205624 18.299225493744125 -1 1 2
1096 0 1 0 10.486192517660754 15.124174328679548 11.77028314293993 0 0 0
468 0 1 0 11.486113678500306 20.946802396974054 3.14859037744309 -1 0 0
31 0 1 0 22.372736877662554 14.94761814860782 16.60977671034677 -1 0 1
817 0 1 0 11.818416166630872 22.476433611534883 11.57098298381512 1 2 -1
1328 0 1 0 22.987079572228694 14.407588412710364 11.49503057706045 0 3 -2
1 0 1 0 2.833816046524167 13.916263530527683 3.7376503673392127 0 -1 0
253 0 1 0 24.511469558666793 27.145742644271472 7.438555721414739 -1 -1 -1
963 0 1 0 13.047793656093743 18.52016975862843 11.855687041033441 1 0 2
1297 0 1 0 15.998407550885094 18.281698920608836 9.653394888910203 -1 -1 0
316 0 1 0 17.884666214882188 22.0267427356163 16.472458693001382 0 0 0
989 0 1 0 14.154397966150512 17.834384460592506 18.71746777984925 2 1 -1
1195 0 1 0 13.380628544360235 20.149880413482155 6.332946775141746 1 0 1
314 0 1 0 24.51074245184422 18.707821229512238 7.888648115971858 -2 1 0
1427 0 1 0 2.702340829516756 19.885840894577598 18.592722828840603 1 3 -1
1441 0 1 0 1.874725988771203 15.629927609894956 9.130013399899958 1 1 1
372 0 1 0 4.312210665539552 19.340347709327418 10.839018298782872 -1 -1 0
608 0 1 0 12.163408849991582 27.377681354895074 21.423867330132012 0 -1 -1
92 0 1 0 7.830630327123427 27.08054579374568 5.441648654754886 0 0 0
374 0 1 0 12.716382262381748 24.694068515100835 7.41359229152749 -2 0 3
1371 0 1 0 14.958021038594833 26.55318471698643 18.597156321683492 1 0 -1
499 0 1 0 10.519188786309673 22.488627927082334 16.037582446310545 1 0 0
760 0 1 0 3.6355382911706093 23.181774293916575 11.967718091576087 -1 0 1
86 0 1 0 8.345141517848708 24.311323946446663 8.013417071632075 1 1 2
435 0 1 0 4.639432211055647 26.97579037294188 20.764541326238156 0 2 0
1300 0 1 0 5.697236158113587 17.289033641608242 19.068947262780554 2 0 -1
509 0 1 0 8.543576469560705 21.16151230329538 5.6401724887144615 0 0 1
913 0 1 0 8.958899785011916 16.27354331462398 20.758177187530805 -1 0 1
956 0 1 0 0.11674211359075634 26.089836175448713 14.877847040214991 0 -1 0
789 0 1 0 13.570644084673445 16.225158126906553 7.28745806328374 0 0 2
1106 0 1 0 3.601977618904004 15.778065300001686 15.863486667656405 1 -1 -1
1411 0 1 0 0.6836883459865568 21.48671053381585 21.239123681025102 1 0 2
1149 0 1 0 19.73908566434968 16.407700711433655 9.480743018090024 1 2 0
567 0 1 0 18.872022137244265 16.771388180056615 17.562064438853113 1 1 -1
629 0 1 0 25.67605082340784 17.080398969625563 0.5838707501274577 0 1 3
437 0 1 0 14.024881000597942 18.024260781255137 2.2354962852381917 1 1 0
719 0 1 0 15.60510134740261 26.44161939539998 12.979940031238426 -2 0 1
231 0 1 0 4.664616399106992 21.125518993549143 22.05615051761955 0 1 -1
164 0 1 0 20.459471495910293 23.917948600177287 21.24326365821673 0 0 1
1259 0 1 0 12.015253110880568 27.294359543822935 12.822879440100008 2 0 1
1069 0 1 0 0.5057783311416838 16.584680522943533 12.30701998432808 0 1 -1
814 0 1 0 24.868504859028445 21.154457784944732 1.3942479584371401 0 0 1
972 0 1 0 7.073702768423353 25.55882336798107 11.489724749430504 1 -1 0
115 0 1 0 17.473865619511 19.12002018942951 3.767825361057782 0 1 -1
1554 0 1 0 7.448123438625084 17.760982530824336 6.303239125711944 1 -1 0
271 0 1 0 5.665879649074471 23.664433367410123 1.8573131584526232 -1 -1 0
624 0 1 0 24.13590883690116 17.921075959058545 19.037861126874617 1 0 2
102 0 1 0 1.3049101052607162 23.05859092808048 6.081616325225711 -1 0 1
358 0 1 0 4.770350297091026 21.077198730386367 6.364718388689497 0 1 -1
1179 0 1 0 19.663213875431342 17.077826010079754 13.70625742927366 0 1 2
840 0 1 0 5.974003223082647 20.80690935095808 17.44983154513768 0 1 1
1518 0 1 0 19.567831812122733 21.065921665217157 12.95436166133447 1 -1 0
833 0 1 0 14.460534135010004 21.524185797459353 14.673602865630754 -2 2 1
1349 0 1 0 0.11738935127490192 17.225071840685494 17.156441255404925 0 -1 2
280 0 1 0 2.1725861367332975 20.02686024123201 13.685252103184025 1 1 1
1162 0 1 0 18.950659630093316 21.091625840961864 6.960415708195243 2 0 3
838 0 1 0 16.554170419667447 18.528315799389887 14.864828859469085 1 0 1
354 0 1 0 21.869202705529894 19.88839672807795 10.197234511335745 0 1 2
1489 0 1 0 21.882027380908013 16.94838709170297 4.100380302791216 0 0 0
1412 0 1 0 7.41336375202178 15.628258715808272 9.241770018309987 0 1 1
1323 0 1 0 24.132539700380352 25.01182441954 12.505473076896926 1 -1 0
476 0 1 0 5.378130640198869 19.25421025118271 3.369558603306487 0 1 -1
1527 0 1 0 3.079916002680508 26.83111174542024 1.2244728720943427 1 1 0
584 0 1 0 24.721191757183117 24.626213319199145 19.203069732463426 1 -1 0
1455 0 1 0 20.17467083162612 22.98072385618781 3.4059062330384466 1 -1 -1
1158 0 1 0 25.606827660735533 26.084724300222362 4.204780315692709 -1 1 2
611 0 1 0 5.189354832847781 25.325859612329797 17.594674370370985 -1 1 2
740 0 1 0 15.44882764642251 22.07137869159695 3.872906713505415 -1 0 1
1331 0 1 0 17.811083387136392 19.539950491725826 20.687059046500046 0 0 -3
1326 0 1 0 24.3288656140352 23.122636019928223 9.24637601635939 -1 1 1
828 0 1 0 9.412310264116416 15.369246077938328 3.886215277110102 -1 0 1
725 0 1 0 0.33282891840833356 21.229257793509273 9.911724773605439 0 0 1
954 0 1 0 18.499614259821495 16.19692102174928 5.428281104364146 0 0 0
1362 0 1 0 18.59220870450347 26.887891704328 20.37312389950419 1 -1 1
9 0 1 0 1.0943510506496579 16.740997519819285 21.611463998610855 0 1 -1
1210 0 1 0 21.71370940647674 14.34113760829409 6.808117294840433 1 1 1
1566 0 1 0 21.21119568814947 15.561703565604045 22.771370539739966 1 1 0
177 0 1 0 25.709508839551155 15.581127769063386 33.72940953997268 0 0 1
1426 0 1 0 3.9230267476966003 23.59341462744025 35.39367687826804 1 2 0
524 0 1 0 16.72388679412909 17.97545758243223 25.34164047576801 1 1 0
1415 0 1 0 23.856881927052545 19.76356080023796 37.75274095764096 2 1 0
1217 0 1 0 7.6803880492943915 24.242715428486008 43.218148749902916 -2 0 -1
1032 0 1 0 0.7301065485658635 27.371437441581833 32.83356817886994 1 -1 -1
1249 0 1 0 21.182354552538975 22.540154090151578 26.175879528577124 -1 1 0
738 0 1 0 13.436819312004888 17.34162936861915 35.10013894928749 0 0 -1
471 0 1 0 24.15891660823129 25.228844960080835 28.773241634087114 0 0 -2
665 0 1 0 11.608868838892471 27.141403599954735 36.74554346643562 -2 1 0
1005 0 1 0 22.558098959152897 26.431671384101737 33.212924008475866 1 1 -1
590 0 1 0 5.886529265546683 20.484665348178556 37.85670150362205 1 -2 0
287 0 1 0 17.018687501363896 17.729581731790965 45.0903190273161 0 -1 -1
1024 0 1 0 16.106162741476574 24.849527503197137 33.887469094929436 0 1 1
1329 0 1 0 14.447629444367331 25.414541350764445 30.467296592134844 -1 0 0
1615 0 1 0 26.1831895564178 20.46013183998964 41.28011645457231 2 -1 -2
648 0 1 0 9.900005697258688 23.90255512049336 22.786828444828732 0 1 1
1463 0 1 0 23.59971772238482 25.50697435523789 36.57947874342143 0 1 -1
1503 0 1 0 25.286607617554377 14.245005654133948 30.18984295795732 -1 1 -1
342 0 1 0 6.386907208118056 26.904482559001433 36.78018404013531 0 0 0
254 0 1 0 11.38204980568182 19.809291553952647 43.19754755611564 2 1 2
1245 0 1 0 22.171841614817243 16.853693340173812 33.74533523026155 1 -1 1
552 0 1 0 3.3197310399696205 17.22682212427133 31.289154173264752 0 2 0
176 0 1 0 23.808071447941877 17.090489850853004 28.493474979506985 -2 -1 2
543 0 1 0 7.756103008140643 16.108687204794517 24.33931511672189 -1 0 0
1095 0 1 0 13.907545650365355 21.866551242824116 31.902757857408808 0 -1 0
770 0 1 0 4.504813163911717 24.939184074711974 39.118420568788274 -1 -1 1
843 0 1 0 20.580579884421947 21.515726476984916 32.622789652833994 -1 -1 2
75 0 1 0 15.647254872517115 22.16320346617802 28.911412638478158 0 -1 -2
296 0 1 0 7.126056086036875 20.433554788741485 34.253814028061704 -1 3 -3
1298 0 1 0 11.981344561820581 15.43271528927975 38.983119995638376 -1 0 -1
1332 0 1 0 20.255240413576075 25.130392474457576 29.852155694596146 -3 0 -1
132 0 1 0 2.6006382627162514 17.725930810198484 39.40326247863753 1 0 0
1207 0 1 0 19.523193574228895 20.54339281992979 23.72901848927269 1 1 -2
866 0 1 0 10.881907102908897 25.152351332879604 30.994822289015644 0 0 0
1601 0 1 0 17.756277641477904 15.66261349745933 31.59016973436508 1 2 1
1508 0 1 0 19.27658155469247 23.711164174011802 40.466480787916325 -1 2 -4
497 0 1 0 23.185154792907024 19.09068814592948 24.332587947060073 0 0 -1
689 0 1 0 4.565290015430579 19.884474101930337 41.89748454695387 1 0 1
212 0 1 0 18.895489696129147 21.024999149004124 42.71360538030307 -1 0 -1
1168 0 1 0 6.158290565679822 16.02160492609286 29.359790334140836 1 2 0
1241 0 1 0 6.0604902669304765 24.708907085871072 24.49455879104797 0 -1 -2
517 0 1 0 11.758839583776336 16.055848346767483 31.798518103089624 0 1 -1
1401 0 1 0 6.297961174427634 16.801114208249746 38.03655685104589 1 1 0
1576 0 1 0 15.619808367402067 23.196269500928477 42.23893411533344 2 0 0
41 0 1 0 22.80392435474419 25.967926884597663 25.070675673426692 1 -1 0
44 0 1 0 7.044182452164482 24.741784948337813 33.33326308932081 0 1 -2
40 0 1 0 3.103716680801858 14.475372853176506 42.97546193135277 2 0 0
927 0 1 0 17.0123402506512 26.048505991031153 38.19992343907764 -1 1 0
1428 0 1 0 17.091539168847465 19.86349997362321 33.78238874929165 0 1 -1
266 0 1 0 9.704957465990592 14.063829006158794 27.435902482865785 1 1 -1
816 0 1 0 15.189749837371323 14.749426947152918 28.6684616491227 1 1 1
987 0 1 0 22.06949242740006 15.13202206639919 44.80610831557693 1 0 -1
1002 0 1 0 1.088453878659074 14.519033781722792 34.56447210065025 1 -2 0
575 0 1 0 1.6245144710157329 23.665922205817232 44.45369217286873 0 2 1
1243 0 1 0 10.090473449498333 18.26289928610284 26.434256924499692 0 1 -1
1250 0 1 0 14.554241554388359 16.162297402794717 22.766410556603525 1 1 0
912 0 1 0 11.312347101420837 23.672283677879136 34.25816037138712 0 0 1
626 0 1 0 14.960543760393232 18.044602338017615 39.12044562565388 0 1 -1
1525 0 1 0 18.2913910066735 20.508574514661916 39.366584749839475 -1 1 0
341 0 1 0 19.404064393778647 24.574746071923506 44.275501863647555 -1 0 0
1061 0 1 0 12.120012643887463 22.73482177812027 27.005475802718692 -1 0 -2
980 0 1 0 9.448511527973347 17.706524419434498 33.85390084338268 0 0 0
119 0 1 0 14.850201453176911 22.48202066719031 38.532839029331804 0 0 -1
900 0 1 0 24.454537392571485 15.537959173947065 25.39585434162382 0 0 -1
712 0 1 0 22.15127438194718 21.666218045820628 29.49695026295729 0 3 -1
137 0 1 0 6.514527657610226 15.66614660991358 33.141986109334354 1 -2 0
199 0 1 0 3.8000535686044525 18.093389040853115 35.09245388917026 0 0 1
1153 0 1 0 6.174159676524748 27.375681332173432 41.638986658043315 1 2 1
381 0 1 0 25.686594157852934 24.65941119991655 33.2795931765139 -2 1 1
430 0 1 0 2.6064848751367387 15.944330986334375 25.061870455240957 0 1 0
772 0 1 0 26.264688099596235 19.439833815286093 30.32046058354231 0 0 -1
1347 0 1 0 12.219823101419372 20.732042077564518 36.07221649463216 0 1 2
976 0 1 0 2.8635720906470805 23.325461534387543 31.644749669612995 2 -1 2
929 0 1 0 2.194348158914587 20.016721946518125 27.028451830854983 0 -2 0
1378 0 1 0 8.309254701964274 23.332231851904776 28.66527829504825 2 1 1
1395 0 1 0 18.86663059836157 18.846771727775426 29.963903311577 0 -1 -2
1309 0 1 0 24.044698868168492 17.232295399560297 40.433223535668446 -1 2 -1
359 0 1 0 2.097933582587559 22.088308891562928 40.06190276245148 -1 -1 0
1047 0 1 0 17.053282941112087 25.613671096294798 24.398502471765617 1 3 -1
745 0 1 0 5.541561239293621 20.996249201918367 30.274158372851613 -1 1 1
1467 0 1 0 11.59595092050363 20.714938876800662 23.784217682741392 -1 -1 -1
67 0 1 0 22.985785378479797 19.493221447315197 43.437413474222666 0 1 -2
609 0 1 0 8.048956743381133 17.59356021384958 42.46920376380089 0 1 -2
946 0 1 0 20.799771217108873 14.975831351854728 39.46354534406812 0 -2 0
923 0 1 0 14.146587576943963 17.27067395585246 42.45623396419397 1 -1 -1
635 0 1 0 17.504816658292754 17.130715502582554 36.77384469619296 0 0 0
470 0 1 0 7.049454195496053 19.571969999175092 24.528250562025175 1 0 0
650 0 1 0 10.35298224249267 20.653747135421046 31.245304395342114 1 0 2
1294 0 1 0 19.958390930305164 16.53454809953096 26.64757639558368 -2 -1 0
1209 0 1 0 11.151528466822963 23.39085433357229 38.18958127532407 -1 -1 -1
1540 0 1 0 9.779590205618103 25.8907427147521 40.54502331153632 0 1 0
897 0 1 0 7.7537502586196965 26.999280159063343 27.523955865129153 0 0 0
215 0 1 0 8.313202004988078 14.393385894224506 43.67039344151526 0 0 0
1142 0 1 0 16.742729444863553 26.542927081759704 44.663675819104874 0 1 2
20 0 1 0 23.316768254860516 24.51566647958315 45.187101208629656 1 -1 -1
664 0 1 0 7.666413711011228 34.191160318305634 12.509817103579978 1 0 -1
406 0 1 0 1.6841655961470372 40.26234671221009 5.078343338993275 0 0 0
1175 0 1 0 20.45551009164405 35.707808013678324 22.401884361481205 0 -1 0
684 0 1 0 3.2259259136840646 33.98583527038142 12.288716621373098 -1 0 -1