region box block 0 52.794504272175 0 54.794296100667 0 45.195295323908
units metal
dimension 3
boundary p p p
atom_style full
create_box 1 box
Created orthogonal box = (0 0 0) to (52.794504 54.794296 45.195295)
  2 by 4 by 2 MPI processor grid
create_atoms 1 random 1620 42 box
Created 1620 atoms
  using lattice units in orthogonal box = (0 0 0) to (52.794504 54.794296 45.195295)
  create_atoms CPU = 0.003 seconds
mass 1 40.078
pair_style hybrid/overlay lj/cut 25 gauss/cut 25 gauss/cut 25
pair_coeff 1 1 lj/cut 0.009507177838705264 3.7584971993521488
pair_coeff 1 1 gauss/cut 1 -0.0597999248039827 5.991246456844763 0.601172550524922
pair_coeff 1 1 gauss/cut 2 0.0726183915985775 5.919659952808235 0.9307156951487607
run 1
WARNING: No fixes with time integration, atoms won't move (src/verlet.cpp:60)
Generated 0 of 0 mixed pair_coeff terms from geometric mixing rule
Neighbor list info ...
  update every 1 steps, delay 10 steps, check yes
  max neighbors/atom: 2000, page size: 100000
  master list distance cutoff = 27
  ghost atom cutoff = 27
  binsize = 13.5, bins = 4 5 4
  3 neighbor lists, perpetual/occasional/extra = 3 0 0
  (1) pair lj/cut, perpetual
      attributes: half, newton on
      pair build: half/bin/newton
      stencil: half/bin/3d
      bin: standard
  (2) pair gauss/cut, perpetual, copy from (1)
      attributes: half, newton on
      pair build: copy
      stencil: none
      bin: none
  (3) pair gauss/cut, perpetual, copy from (1)
      attributes: half, newton on
      pair build: copy
      stencil: none
      bin: none
Per MPI rank memory allocation (min/avg/max) = 6.986 | 6.996 | 7.007 Mbytes
   Step          Temp          E_pair         E_mol          TotEng         Press     
         0   0              1.2616264e+12  0              1.2616264e+12  6.1842051e+13
         1   0              1.2616264e+12  0              1.2616264e+12  6.1842051e+13
Loop time of 0.0109369 on 16 procs for 1 steps with 1620 atoms

Performance: 7.900 ns/day, 3.038 hours/ns, 91.434 timesteps/s
100.0% CPU use with 16 MPI tasks x 1 OpenMP threads

MPI task timing breakdown:
Section |  min time  |  avg time  |  max time  |%varavg| %total
---------------------------------------------------------------
Pair    | 0.0056352  | 0.0077028  | 0.010583   |   1.5 | 70.43
Bond    | 7.85e-07   | 9.0319e-07 | 1.091e-06  |   0.0 |  0.01
Neigh   | 0          | 0          | 0          |   0.0 |  0.00
Comm    | 0.00026794 | 0.0031429  | 0.0052073  |   2.4 | 28.74
Output  | 4.8344e-05 | 5.2021e-05 | 5.5017e-05 |   0.0 |  0.48
Modify  | 1.331e-06  | 1.5213e-06 | 1.941e-06  |   0.0 |  0.01
Other   |            | 3.675e-05  |            |       |  0.34

Nlocal:         101.25 ave         118 max          87 min
Histogram: 2 0 2 3 3 2 1 2 0 1
Nghost:        5079.88 ave        5239 max        4923 min
Histogram: 3 2 1 1 1 1 2 2 0 3
Neighs:        51689.8 ave       61793 max       40060 min
Histogram: 1 1 1 1 3 2 1 4 1 1

Total # of neighbors = 827037
Ave neighs/atom = 510.51667
Ave special neighs/atom = 0
Neighbor list builds = 0
Dangerous builds = 0
thermo 1000
neighbor 2.0 bin
neigh_modify every 1 delay 0 check yes one 200000 page 2000000000
minimize 0.0 1.0e-8 100 1000
Generated 0 of 0 mixed pair_coeff terms from geometric mixing rule
Neighbor list info ...
  update every 1 steps, delay 0 steps, check yes
  max neighbors/atom: 200000, page size: 2000000000
  master list distance cutoff = 27
  ghost atom cutoff = 27
  binsize = 13.5, bins = 4 5 4
  3 neighbor lists, perpetual/occasional/extra = 3 0 0
  (1) pair lj/cut, perpetual
      attributes: half, newton on
      pair build: half/bin/newton
      stencil: half/bin/3d
      bin: standard
  (2) pair gauss/cut, perpetual, copy from (1)
      attributes: half, newton on
      pair build: copy
      stencil: none
      bin: none
  (3) pair gauss/cut, perpetual, copy from (1)
      attributes: half, newton on
      pair build: copy
      stencil: none
      bin: none
Per MPI rank memory allocation (min/avg/max) = 2.29e+04 | 2.29e+04 | 2.29e+04 Mbytes
   Step          Temp          E_pair         E_mol          TotEng         Press     
         1   0              1.2616264e+12  0              1.2616264e+12  6.1842051e+13
       101   0             -49.675106      0             -49.675106      751.62388    
Loop time of 1.05564 on 16 procs for 100 steps with 1620 atoms

100.0% CPU use with 16 MPI tasks x 1 OpenMP threads

Minimization stats:
  Stopping criterion = max iterations
  Energy initial, next-to-last, final = 
      1261626399824.72  -49.4493735722958  -49.6751059684104
  Force two-norm initial, final = 6.0835214e+13 0.47018245
  Force max component initial, final = 3.3024929e+13 0.052406355
  Final line search alpha, max atom move = 1 0.052406355
  Iterations, force evaluations = 100 116

MPI task timing breakdown:
Section |  min time  |  avg time  |  max time  |%varavg| %total
---------------------------------------------------------------
Pair    | 0.67849    | 0.84157    | 0.99424    |   9.8 | 79.72
Bond    | 9.3044e-05 | 9.6073e-05 | 0.00010058 |   0.0 |  0.01
Neigh   | 0.0084891  | 0.0096584  | 0.01074    |   0.7 |  0.91
Comm    | 0.046487   | 0.19986    | 0.36407    |  20.2 | 18.93
Output  | 4.0994e-05 | 4.2252e-05 | 4.3287e-05 |   0.0 |  0.00
Modify  | 0          | 0          | 0          |   0.0 |  0.00
Other   |            | 0.004415   |            |       |  0.42

Nlocal:         101.25 ave         114 max          89 min
Histogram: 1 1 2 3 1 4 1 0 1 2
Nghost:        5073.12 ave        5227 max        4935 min
Histogram: 2 3 2 0 2 1 2 0 2 2
Neighs:        51684.1 ave       63137 max       42161 min
Histogram: 2 3 1 1 2 1 4 0 1 1

Total # of neighbors = 826945
Ave neighs/atom = 510.45988
Ave special neighs/atom = 0
Neighbor list builds = 6
Dangerous builds = 0
timestep 0.0005
fix 1 all nvt temp 300.0 300.0 $(100.0*dt)
fix 1 all nvt temp 300.0 300.0 0.050000000000000002776
fix removeMomentum all momentum 1 linear 1 1 1
dump 1 all custom 1000 ljg2_nvt_42/ca.traj id mol type mass x y z
dump_modify 1 sort id
run 2000000
Generated 0 of 0 mixed pair_coeff terms from geometric mixing rule
Per MPI rank memory allocation (min/avg/max) = 2.289e+04 | 2.289e+04 | 2.289e+04 Mbytes
   Step          Temp          E_pair         E_mol          TotEng         Press     
       101   0             -49.675106      0             -49.675106      751.62388    
      1000   164.32657     -45.526376      0             -11.137398      1186.6089    
      2000   289.70157     -10.696573      0              49.929905      1794.588     
      3000   302.34237     -6.9371123      0              56.334733      2101.6856    
      4000   310.80899     -5.605368       0              59.438306      2134.1632    
      5000   301.69642     -6.4722063      0              56.66446       1989.1034    
      6000   298.0201      -4.4276272      0              57.939688      2004.3177    
      7000   297.97599     -5.5634084      0              56.794675      2081.8215    
      8000   298.60895     -4.5776184      0              57.912926      2143.2126    
      9000   297.11915     -4.0007428      0              58.178029      2168.3897    
     10000   299.60666     -4.8311215      0              57.868216      2097.6889    
     11000   286.86942     -3.6868955      0              56.346891      2104.1135    
     12000   307.07787     -5.3315043      0              58.93135       2055.4198    
     13000   293.76343     -5.390143       0              56.086369      2077.8531    
     14000   310.26104     -5.7090087      0              59.219994      2103.734     
     15000   301.96433     -4.8458863      0              58.346845      2180.9859    
     16000   289.56718     -5.8187494      0              54.779604      1966.1287    
     17000   300.03605     -5.1074783      0              57.681718      1959.4395    
     18000   299.48221     -4.5185716      0              58.154722      2108.5619    
     19000   302.46853     -3.3771971      0              59.92105       2063.6897    
     20000   306.17761     -5.9916051      0              58.08285       2017.13      
     21000   306.80084     -4.6381064      0              59.566772      2128.6655    
     22000   298.91789     -4.9296845      0              57.625512      2148.3557    
     23000   300.87427     -5.1023919      0              57.862221      2024.578     
     24000   311.3846      -4.1169347      0              61.047199      2096.8401    
     25000   296.77435     -2.6699807      0              59.436632      2144.343     
     26000   298.0786      -4.8241498      0              57.555408      2043.8151    
     27000   305.71214     -3.4282964      0              60.548749      2051.3541    
     28000   314.34702     -4.5037443      0              61.28034       2147.0783    
     29000   297.15924     -5.9561674      0              56.230993      2060.4686    
     30000   294.28413     -3.0627347      0              58.522745      2153.8251    
     31000   310.63366     -3.8922631      0              61.114719      2300.6815    
     32000   285.94645     -4.2309936      0              55.609643      2106.907     
     33000   295.25079     -4.5260682      0              57.261707      2012.7191    
     34000   303.27401     -5.5779205      0              57.88889       2027.4247    
     35000   294.31914     -4.0429321      0              57.549875      2144.4275    
     36000   295.28645     -6.5174298      0              55.277808      2020.6288    
     37000   290.31517     -5.8468952      0              54.907991      1988.2387    
     38000   299.39325     -3.8755252      0              58.77915       2202.2725    
     39000   312.94946     -4.1381467      0              61.353467      2118.3982    
     40000   293.99228     -4.5128138      0              57.01159       2062.179     
     41000   313.44129     -5.2343191      0              60.360222      2026.7159    
     42000   295.75532     -3.6768489      0              58.21651       2141.4937    
     43000   307.43383     -5.9982244      0              58.339121      2092.9375    
     44000   300.45034     -4.6394262      0              58.236471      2116.7871    
     45000   299.00033     -5.626043       0              56.946406      2120.4904    
     46000   293.71427     -5.7937563      0              55.672468      1994.1887    
     47000   290.02791     -6.0364317      0              54.65834       2147.4954    
     48000   291.76708     -4.8454312      0              56.2133        2075.7096    
     49000   296.94311     -2.9165302      0              59.225401      2132.6084    
     50000   303.12825     -3.0908844      0              60.345425      2125.9295    
     51000   301.59666     -4.25666        0              58.859129      2096.8769    
     52000   300.28728     -4.7636248      0              58.078147      2024.0576    
     53000   300.77232     -4.4472608      0              58.496016      2136.4814    
     54000   297.77552     -4.1903273      0              58.125802      2068.6954    
     55000   294.72514     -4.8599194      0              56.817851      2090.594     
     56000   288.76661     -3.9935095      0              56.437306      2060.6353    
     57000   290.38473     -4.5683602      0              56.201084      2004.0427    
     58000   301.26198     -4.5686504      0              58.4771        2090.6111    
     59000   296.66366     -5.2932529      0              56.790196      1988.1297    
     60000   311.97279     -5.4554         0              59.831824      2028.0737    
     61000   289.68982     -4.0092034      0              56.614816      2176.9107    
     62000   298.08775     -4.8567883      0              57.524683      2056.1011    
     63000   299.77285     -5.3391108      0              57.395005      2007.7124    
     64000   305.2974      -4.2054354      0              59.684816      2038.2832    
     65000   299.28858     -4.394956       0              58.237815      2121.6902    
     66000   295.41922     -4.0030004      0              57.820022      2126.5316    
     67000   299.36656     -4.1853243      0              58.463768      2130.9994    
     68000   286.49994     -4.6033103      0              55.353156      2009.7162    
     69000   299.43241     -4.8080029      0              57.854868      2035.8471    
     70000   290.57466     -3.8261589      0              56.983031      2202.3191    
     71000   296.76202     -5.0006746      0              57.103358      2132.9916    
     72000   312.29032     -3.4922609      0              61.861414      2163.788     
     73000   295.09499     -5.6699558      0              56.085214      2062.7195    
     74000   303.84176     -4.5121167      0              59.07351       2015.0962    
     75000   301.07379     -4.6477787      0              58.358587      2171.9774    
     76000   306.63852     -3.8752003      0              60.29571       2132.4154    
     77000   305.98258     -5.2947048      0              58.738935      2048.793     
     78000   290.90363     -5.714209       0              55.163827      1970.2343    
     79000   297.58073     -4.2866886      0              57.988679      2173.6436    
     80000   300.37064     -5.2987025      0              57.560515      2081.9583    
     81000   303.63408     -4.2031155      0              59.339049      2197.9352    
     82000   298.60226     -6.5545119      0              55.934633      2065.2012    
     83000   300.87943     -6.7344639      0              56.231229      2007.7088    
     84000   298.83303     -4.2038708      0              58.333567      1996.2977    
     85000   296.37346     -5.5131412      0              56.509577      2066.225     
     86000   302.55889     -3.6881256      0              59.629031      2178.5384    
     87000   307.37186     -4.8306909      0              59.493686      1999.9135    
     88000   304.07137     -5.1893393      0              58.444338      2041.4224    
     89000   304.62379     -6.812524       0              56.936758      2032.8454    
     90000   318.62255     -7.0380761      0              59.640759      2167.9313    
     91000   296.43572     -5.4673307      0              56.568416      2083.1561    
     92000   313.46569     -3.7521833      0              61.847463      2167.8393    
     93000   302.68117     -3.8645197      0              59.478227      2198.0696    
     94000   301.07021     -5.041052       0              57.964565      2048.4945    
     95000   296.77942     -3.8077865      0              58.299887      2090.8815    
     96000   311.29786     -3.6700972      0              61.475883      2142.5873    
     97000   296.83322     -3.8427231      0              58.276211      2157.6104    
     98000   299.68348     -3.7509401      0              58.964474      2225.1753    
     99000   308.19032     -4.5854202      0              59.910238      2044.4036    
    100000   305.11136     -4.826241       0              59.025076      2149.8433    
    101000   305.53123     -3.4003127      0              60.538872      2172.2929    
    102000   294.59441     -5.5696791      0              56.080734      1979.3572    
    103000   311.26111     -5.4706502      0              59.667639      2079.108     
    104000   301.0712      -3.3254212      0              59.680403      2203.3331    
    105000   303.80009     -5.904714       0              57.672192      2086.5144    
    106000   298.39749     -5.3896385      0              57.056652      2069.657     
    107000   295.54537     -4.8396535      0              57.009769      2094.3895    
    108000   295.07505     -4.8188534      0              56.932145      2089.1013    
    109000   296.89252     -4.7255794      0              57.405765      2112.7959    
    110000   309.74971     -5.120581       0              59.701415      2050.0407    
    111000   296.46534     -5.50434        0              56.537607      2000.4259    
    112000   298.8799      -4.5299311      0              58.017315      2101.9334    
    113000   301.21877     -4.2655894      0              58.771118      2089.5224    
    114000   299.43538     -3.9375707      0              58.725922      2154.3083    
    115000   310.53771     -4.9117686      0              60.075134      2142.6481    
    116000   299.23599     -4.2557811      0              58.365985      1996.6481    
    117000   307.47653     -5.4317113      0              58.914571      2016.0228    
    118000   293.06708     -2.8015761      0              58.529209      2197.2223    
    119000   298.62654     -4.8614614      0              57.632765      2192.8623    
    120000   297.92612     -4.1185149      0              58.229132      2131.785     
    121000   304.30411     -4.1736056      0              59.508777      2175.3492    
    122000   309.91638     -4.8971092      0              59.959765      2172.5338    
    123000   299.11386     -5.6275444      0              56.968663      2136.4703    
    124000   301.01405     -4.5872488      0              58.406616      2052.8125    
    125000   299.60258     -5.2949998      0              57.403483      2020.3999    
    126000   303.3056      -6.9180706      0              56.555352      1983.9827    
    127000   304.71478     -5.1902105      0              58.578115      2086.3714    
    128000   292.99617     -5.4140186      0              55.901927      2020.9724    
    129000   300.54493     -5.1885411      0              57.707149      2067.8371    
    130000   303.28322     -4.1096545      0              59.359084      2232.7551    
    131000   298.57061     -5.7433097      0              56.739211      2046.1011    
    132000   296.97889     -4.9263277      0              57.223091      2049.3667    
    133000   287.0604      -2.2507249      0              57.823029      2052.9769    
    134000   298.48723     -4.6393219      0              57.825751      2011.5261    
    135000   301.86584     -4.19055        0              58.981572      2121.6124    
    136000   296.31601     -5.0178466      0              56.992849      2046.4093    
    137000   298.81486     -5.2709217      0              57.262714      2151.2702    
    138000   303.57093     -3.5354842      0              59.993464      2228.0276    
    139000   311.52887     -4.5916073      0              60.602718      2061.6754    
    140000   294.46412     -4.8469519      0              56.776194      2015.8657    
    141000   305.8501      -4.607001       0              59.398916      2081.3288    
    142000   305.70066     -5.2974503      0              58.677191      2031.7536    
    143000   301.13242     -5.2573845      0              57.761252      1994.9249    
    144000   302.54366     -4.8241701      0              58.4898        2027.8869    
    145000   305.18491     -3.8154114      0              60.051297      2194.0325    
    146000   302.45779     -5.2260633      0              58.069936      2062.7325    
    147000   307.09477     -6.4323518      0              57.834038      2188.841     
    148000   309.37309     -3.8726061      0              60.870574      2253.1776    
    149000   299.89459     -5.2901711      0              57.469421      2107.0358    
    150000   290.23842     -4.1351262      0              56.603698      2053.2145    
    151000   304.18857     -4.4561485      0              59.202055      2131.88      
    152000   291.41191     -5.8573251      0              55.127079      1965.9133    
    153000   291.00859     -4.8158004      0              56.084201      2066.6174    
    154000   288.26782     -4.7601523      0              55.566281      2076.314     
    155000   313.40173     -4.4071644      0              61.179098      2127.9152    
    156000   306.97392     -4.1299457      0              60.111154      2059.7816    
    157000   294.98934     -3.9501502      0              57.782911      2189.2417    
    158000   303.36531     -4.8227859      0              58.663133      2042.5668    
    159000   306.34336     -5.0827743      0              59.026367      2114.8889    
    160000   294.56584     -4.0139609      0              57.630473      2099.9619    
    161000   291.40157     -4.2072373      0              56.775003      2041.2495    
    162000   300.59528     -3.5750537      0              59.331175      2126.5504    
    163000   294.42653     -3.5779891      0              58.037292      2146.2296    
    164000   287.97139     -3.8523874      0              56.412011      2177.926     
    165000   299.72406     -6.1158942      0              56.608012      2051.5659    
    166000   302.31351     -4.5269969      0              58.73881       2123.1242    
    167000   293.44038     -5.2132962      0              56.195611      2119.4205    
    168000   298.05318     -4.073403       0              58.300834      2070.9758    
    169000   304.15853     -4.5492467      0              59.102671      2103.5682    
    170000   300.15993     -6.9159526      0              55.899168      2003.2685    
    171000   295.92534     -5.2829168      0              56.646022      2068.9003    
    172000   299.0213      -4.0547483      0              58.522089      2173.2747    
    173000   296.7609      -4.9955339      0              57.108265      2143.3456    
    174000   294.09004     -4.6084476      0              56.936415      2041.3876    
    175000   308.78691     -4.0757803      0              60.544728      2133.6085    
    176000   300.33524     -5.3565262      0              57.495283      2058.7764    
    177000   295.8558      -3.4102132      0              58.504173      2115.1717    
    178000   291.95618     -6.3903275      0              54.707977      2113.9241    
    179000   306.95267     -4.929681       0              59.306971      2151.2668    
    180000   295.442       -3.9320405      0              57.89575       2118.7735    
    181000   302.18331     -2.7061989      0              60.53236       2137.7515    
    182000   295.70081     -5.8541382      0              56.027814      2074.3129    
    183000   301.47387     -5.4269797      0              57.663112      2062.5504    
    184000   307.18571     -5.5155486      0              58.769873      2108.2808    
    185000   303.72872     -4.2489808      0              59.312989      2062.4788    
    186000   301.4067      -3.960639       0              59.115397      2082.332     
    187000   291.58639     -3.8427154      0              57.178203      2121.3439    
    188000   289.51033     -5.8088489      0              54.777608      2037.2117    
    189000   297.12482     -4.1471491      0              58.032808      1998.9784    
    190000   296.26857     -4.1691169      0              57.831651      2176.0947    
    191000   306.9315      -2.7978165      0              61.434406      2133.9678    
    192000   285.39834     -3.8267285      0              55.899202      2158.9736    
    193000   300.42496     -4.072087       0              58.798498      2133.9888    
    194000   292.68407     -5.3578012      0              55.892831      2054.3569    
    195000   293.49593     -5.6176328      0              55.802898      2101.1253    
    196000   306.58181     -5.087686       0              59.071356      2082.8876    
    197000   301.47996     -2.7407459      0              60.350622      2149.3434    
    198000   298.78254     -4.657942       0              57.86893       2092.9272    
    199000   296.9932      -3.7214742      0              58.430939      2078.2161    
    200000   308.78679     -5.4087066      0              59.211776      2155.1284    
    201000   291.8521      -4.8494279      0              56.227096      2102.1413    
    202000   301.3683      -4.4598812      0              58.608117      2076.058     
    203000   301.72364     -3.8707099      0              59.271653      2050.728     
    204000   295.22576     -3.2966118      0              58.485926      2102.8353    
    205000   304.81393     -3.7221171      0              60.066957      2094.4898    
    206000   290.06535     -4.7310779      0              55.971529      2129.2432    
    207000   297.14008     -4.609271       0              57.573879      2106.6656    
    208000   289.50143     -4.2978527      0              56.286741      1983.4401    
    209000   303.81071     -3.8120079      0              59.767121      2115.3926    
    210000   305.69449     -2.5794745      0              61.393876      2288.6691    
    211000   298.18186     -4.551624       0              57.849542      2051.9198    
    212000   302.69057     -3.5219353      0              59.822778      2149.8891    
    213000   297.83864     -4.3064402      0              58.022899      2044.9108    
    214000   299.09957     -4.7339223      0              57.859295      2069.8291    
    215000   297.38511     -5.3666576      0              56.867771      2084.5268    
    216000   304.19838     -5.477333       0              58.182924      1988.4969    
    217000   300.83703     -2.8695316      0              60.087288      2130.2251    
    218000   299.99629     -2.7705178      0              60.010359      2113.4483    
    219000   297.98479     -5.4239957      0              56.93593       1947.1758    
    220000   305.31899     -5.7439755      0              58.150793      2141.444     
    221000   307.55764     -3.0649037      0              61.298352      2157.2918    
    222000   299.92646     -5.8611623      0              56.9051        2011.9332    
    223000   305.47733     -3.8903419      0              60.037563      2260.8848    
    224000   304.78115     -5.2797474      0              58.502467      2146.2979    
    225000   310.28332     -5.226304       0              59.707362      2010.4106    
    226000   309.47887     -5.0454594      0              59.719857      2083.8584    
    227000   296.61635     -5.1656275      0              56.90792       2037.7443    
    228000   301.49241     -4.6227322      0              58.471239      2145.899     
    229000   292.31697     -4.9029705      0              56.270837      2044.5098    
    230000   294.30621     -4.46102        0              57.129081      2093.7713    
    231000   293.0351      -4.0060416      0              57.318051      2070.2375    
    232000   304.51376     -4.7319069      0              58.99435       2083.3037    
    233000   304.41077     -4.2428409      0              59.461863      2095.9626    
    234000   295.30496     -4.0100255      0              57.789085      2156.0477    
    235000   307.12828     -4.9724183      0              59.300986      2082.962     
    236000   307.60048     -5.8579143      0              58.514307      1946.7899    
    237000   305.98119     -2.8962291      0              61.137119      2171.6449    
    238000   298.9401      -5.3456803      0              57.214164      2096.8543    
    239000   307.32569     -3.8919825      0              60.422732      2206.5216    
    240000   289.04909     -4.2844047      0              56.205528      2100.1803    
    241000   296.72646     -4.2693685      0              57.827224      2194.7035    
    242000   300.86299     -4.7891329      0              58.173119      1965.9351    
    243000   287.53678     -3.8768746      0              56.296572      2203.611     
    244000   298.28957     -5.4497943      0              56.973913      2093.0731    
    245000   298.34988     -5.1142628      0              57.322064      2161.6189    
    246000   305.92593     -4.7152732      0              59.306511      2112.3296    
    247000   293.01591     -2.5070508      0              58.813027      2186.385     
    248000   297.06298     -2.5383354      0              59.62868       2140.178     
    249000   299.51989     -3.7781471      0              58.903033      2171.4884    
    250000   308.77398     -4.0833052      0              60.534497      2063.4021    
    251000   302.50313     -6.1355509      0              57.169938      2141.5144    
    252000   296.44445     -3.5586441      0              58.478931      2133.9679    
    253000   305.58762     -3.5360884      0              60.414897      2126.6182    
    254000   293.10149     -5.1048261      0              56.233161      2152.6563    
    255000   290.51271     -5.0272072      0              55.769019      1992.8115    
    256000   299.73267     -3.30124        0              59.424467      2106.7884    
    257000   307.57498     -5.9914063      0              58.375479      1934.8357    
    258000   294.9204      -6.4076566      0              55.310978      1972.0507    
    259000   306.02993     -5.5282265      0              58.515323      2069.9905    
    260000   292.57244     -6.0393113      0              55.187959      1967.6629    
    261000   303.21518     -2.9025836      0              60.551917      2103.6286    
    262000   302.4231      -5.3988212      0              57.88992       2063.4481    
    263000   299.88095     -2.1071039      0              60.649635      2219.9463    
    264000   292.89317     -4.4532144      0              56.841177      2047.1856    
    265000   286.2345      -5.6753775      0              54.225538      1900.0771    
    266000   299.0527      -3.9400251      0              58.643385      2149.2499    
    267000   301.83597     -4.5766768      0              58.589194      2152.1894    
    268000   302.8663      -4.5230114      0              58.858477      2103.8828    
    269000   298.49431     -4.5045787      0              57.961975      2089.9377    
    270000   286.24816     -6.2348114      0              53.668963      2043.7536    
    271000   294.62771     -5.6129357      0              56.044446      2015.706     
    272000   305.451       -5.0019415      0              58.920453      2057.9766    
    273000   308.66376     -3.5210291      0              61.073707      2146.111     
    274000   306.46646     -4.9914878      0              59.143416      2019.8251    
    275000   295.67493     -3.9493768      0              57.927158      2116.2194    
    276000   304.72007     -4.240733       0              59.528698      2086.367     
    277000   295.96744     -5.5162398      0              56.421511      2080.9426    
    278000   300.02244     -5.1300219      0              57.656327      2050.0237    
    279000   303.76066     -4.0374259      0              59.531228      2131.8533    
    280000   299.12359     -5.4035467      0              57.194698      2065.5116    
    281000   303.31139     -4.4270423      0              59.047592      2170.9836    
    282000   299.17624     -4.661369       0              57.947893      2105.1867    
    283000   308.17591     -2.9880182      0              61.504624      2126.5308    
    284000   310.83421     -5.1705354      0              59.878417      2066.6473    
    285000   298.43241     -5.7079076      0              56.745693      2033.6391    
    286000   295.80387     -4.9663658      0              56.937154      2156.2317    
    287000   293.0369      -5.0821994      0              56.242269      1987.7844    
    288000   307.65269     -5.7228841      0              58.660264      1985.5629    
    289000   297.03815     -5.1598657      0              57.001954      2060.7428    
    290000   304.5627      -5.247001       0              58.489498      2044.0664    
    291000   291.15374     -3.9549701      0              56.975406      2113.8232    
    292000   302.57098     -4.2839217      0              59.035764      2217.7216    
    293000   290.95885     -5.3112193      0              55.578372      2011.4056    
    294000   290.88408     -4.2456583      0              56.628285      2041.551     
    295000   303.80177     -4.4985582      0              59.078698      2189.0414    
    296000   293.28703     -7.0754924      0              54.301322      1991.4273    
    297000   293.22185     -6.5426248      0              54.820549      1890.0617    
    298000   301.60339     -5.7644782      0              57.35272       2032.3536    
    299000   306.30787     -4.8952485      0              59.206465      2039.9403    
    300000   306.91218     -4.3021648      0              59.926015      2101.589     
    301000   300.44678     -3.9110089      0              58.964143      2133.3057    
    302000   298.60112     -4.4293122      0              58.059594      2178.2313    
    303000   302.37667     -4.5308927      0              58.748132      2116.5924    
    304000   299.78927     -4.6476387      0              58.089914      2095.3569    
    305000   298.5144      -4.6647967      0              57.805962      2099.7831    
    306000   292.20464     -4.9169319      0              56.233368      2134.1096    
    307000   302.06078     -4.3515184      0              58.861397      2038.6386    
    308000   310.85035     -5.1944642      0              59.857864      2116.7021    
    309000   286.6067      -5.6960014      0              54.282807      2053.2084    
    310000   290.72489     -5.8327663      0              55.007863      2168.3402    
    311000   297.81989     -4.2933951      0              58.032021      2038.7805    
    312000   307.80971     -4.7960202      0              59.619986      2098.4351    
    313000   296.81023     -4.2594198      0              57.854703      2116.0331    
    314000   294.38192     -5.1728852      0              56.433058      2023.5204    
    315000   298.99008     -4.4478557      0              58.122449      2099.3065    
    316000   310.53015     -5.9029476      0              59.082372      2011.7489    
    317000   295.43137     -5.9886814      0              55.836883      2104.6076    
    318000   290.92392     -4.7547227      0              56.127559      2023.8441    
    319000   299.46294     -4.8906903      0              57.778571      2015.9692    
    320000   289.81167     -4.0975378      0              56.55198       2076.0235    
    321000   294.29689     -4.288539       0              57.299612      2052.5799    
    322000   297.75277     -4.6108623      0              57.700508      2039.1268    
    323000   293.08164     -5.0197101      0              56.314123      2098.1832    
    324000   308.19035     -4.7237934      0              59.771872      2137.0389    
    325000   306.58844     -3.2624152      0              60.898014      2194.9087    
    326000   305.10668     -3.2870782      0              60.563261      2105.5278    
    327000   292.46326     -5.5102948      0              55.694128      2012.9287    
    328000   301.71756     -4.2786249      0              58.862465      2096.0491    
    329000   298.26594     -4.8901034      0              57.528658      2108.3466    
    330000   302.3924      -4.6413977      0              58.640918      2071.7663    
    331000   295.20809     -3.5399345      0              58.238905      2102.8938    
    332000   302.89933     -3.9176047      0              59.470796      2016.9915    
    333000   299.04564     -4.3575322      0              58.2244        2146.513     
    334000   301.90657     -5.9901674      0              57.190478      2026.7197    
    335000   300.91851     -5.520241       0              57.453629      2009.3782    
    336000   292.74026     -4.5811491      0              56.681242      2047.214     
    337000   297.18835     -5.4464116      0              56.746841      2073.7136    
    338000   301.17793     -4.8437576      0              58.184402      2097.9146    
    339000   298.99125     -4.5249592      0              58.045591      2063.9735    
    340000   305.19442     -3.2534707      0              60.615229      2103.9335    
    341000   300.7848      -4.1385856      0              58.807304      2174.8786    
    342000   297.70515     -4.8949098      0              57.406494      2111.1763    
    343000   294.92237     -5.7411391      0              55.977907      2050.338     
    344000   300.04684     -5.0417365      0              57.749717      2135.4242    
    345000   306.2488      -5.1768555      0              58.912498      2012.7918    
    346000   303.35613     -3.8461864      0              59.63781       2095.4556    
    347000   308.00553     -2.9398021      0              61.517184      2191.6569    
    348000   298.1846      -4.7880976      0              57.613642      2049.3949    
    349000   297.03223     -4.0497391      0              58.110842      2052.9478    
    350000   296.68656     -4.5653786      0              57.522862      2115.0733    
    351000   300.16723     -4.6398774      0              58.176772      1982.0223    
    352000   296.56042     -5.4040042      0              56.657839      2071.4017    
    353000   291.82477     -5.8569735      0              55.21383       2075.285     
    354000   298.10951     -4.910254       0              57.475771      1977.6003    
    355000   299.01414     -4.0606709      0              58.514669      2162.4896    
    356000   302.89549     -4.8426241      0              58.544973      2028.2944    
    357000   289.49149     -4.2969328      0              56.285581      2107.9848    
    358000   298.52601     -4.0721296      0              58.401058      2191.5527    
    359000   299.54073     -2.8298537      0              59.855686      2165.8058    
    360000   302.12767     -4.4463982      0              58.780517      2019.6298    
    361000   297.68727     -3.8839153      0              58.413747      2149.5435    
    362000   299.22445     -4.7681219      0              57.85123       2072.9418    
    363000   298.64497     -5.2899466      0              57.208135      2131.4302    
    364000   311.40743     -4.4582749      0              60.710636      2096.1958    
    365000   291.36249     -5.4585994      0              55.515461      2105.5771    
    366000   308.05966     -3.0625211      0              61.405793      2211.5683    
    367000   293.49603     -2.761436       0              58.659117      2257.7464    
    368000   298.9134      -5.783467       0              56.770789      2007.7929    
    369000   295.54371     -4.8222455      0              57.02683       2185.2057    
    370000   305.74812     -3.8683671      0              60.116207      2011.7187    
    371000   290.04278     -3.7753426      0              56.92254       2113.9641    
    372000   296.38029     -4.4578278      0              57.56632       2029.5298    
    373000   309.47823     -4.603829       0              60.161354      2066.2809    
    374000   289.14771     -5.2631783      0              55.247392      2059.414     
    375000   291.75313     -5.4163792      0              55.639432      2194.2961    
    376000   301.40505     -6.3344722      0              56.741218      2077.8253    
    377000   299.51306     -5.7123056      0              56.967445      2010.2236    
    378000   286.36989     -5.471893       0              54.457356      1942.508     
    379000   298.10941     -4.8756989      0              57.510305      2079.6549    
    380000   294.95272     -4.6695608      0              57.055835      2040.7001    
    381000   303.39757     -4.8866368      0              58.606032      2108.6946    
    382000   302.45843     -3.0699397      0              60.226194      2163.0289    
    383000   295.39323     -6.0253051      0              55.792279      2065.525     
    384000   294.7752      -4.8886164      0              56.799631      2081.6114    
    385000   304.14205     -5.8978608      0              57.750607      1992.4359    
    386000   294.30615     -4.1491828      0              57.440905      2033.8562    
    387000   288.92104     -4.0604008      0              56.402733      2023.6999    
    388000   304.82167     -3.1721183      0              60.618575      2099.1015    
    389000   308.23912     -3.2080766      0              61.297794      2188.0283    
    390000   294.77533     -3.2299051      0              58.458369      2147.9902    
    391000   294.80977     -4.3989045      0              57.296578      2197.7899    
    392000   301.53377     -3.0573649      0              60.045264      2026.2509    
    393000   302.54207     -3.3837141      0              59.929923      2099.2347    
    394000   304.77661     -3.8499579      0              59.931305      2159.2528    
    395000   295.28412     -4.6106778      0              57.184073      2118.8881    
    396000   300.57754     -2.6894993      0              60.213015      2184.578     
    397000   299.66616     -3.7099855      0              59.001803      2093.534     
    398000   298.37632     -3.9445886      0              58.497273      2073.8598    
    399000   299.36092     -3.4045441      0              59.243366      2121.0775    
    400000   304.66741     -5.7281599      0              58.030251      2031.6554    
    401000   298.49906     -2.7008658      0              59.766681      2125.0241    
    402000   305.62831     -3.6478738      0              60.311627      2177.3428    
    403000   292.67591     -5.0353512      0              56.213573      2196.075     
    404000   296.04981     -3.4803426      0              58.474646      2144.8097    
    405000   293.46201     -3.7728886      0              57.640544      2124.7732    
    406000   291.58486     -3.1028209      0              57.917778      2079.4378    
    407000   294.21134     -2.7041539      0              58.866092      2173.7425    
    408000   307.40615     -3.3019372      0              61.029616      2146.6808    
    409000   304.85083     -4.756926       0              59.039869      2098.4641    
    410000   299.07442     -2.6816426      0              59.906312      2131.6106    
    411000   292.81442     -2.8770021      0              58.400909      2151.1033    
    412000   292.8468      -2.9146143      0              58.370073      2058.4811    
    413000   293.33654     -4.2659839      0              57.121192      2049.4146    
    414000   302.94936     -4.2289665      0              59.169906      2145.1416    
    415000   312.67697     -4.7155975      0              60.718993      2128.0195    
    416000   307.8232      -5.5054399      0              58.913391      2107.7881    
    417000   301.76933     -4.4472052      0              58.704719      2007.761     
    418000   303.90081     -5.2759762      0              58.322008      2053.1016    
    419000   290.31017     -4.2300365      0              56.523805      2102.7676    
    420000   308.13117     -3.4305793      0              61.052701      2137.1439    
    421000   295.82905     -5.1715194      0              56.737268      2096.3361    
    422000   306.87129     -4.4270613      0              59.792562      2020.0039    
    423000   302.15285     -5.5368539      0              57.69533       2127.4652    
    424000   308.71773     -4.0145118      0              60.591518      2130.091     
    425000   305.44478     -4.1600816      0              59.761013      2166.69      
    426000   293.281       -2.8037819      0              58.57177       2205.6459    
    427000   303.33842     -4.0854584      0              59.394832      2243.6674    
    428000   290.20627     -6.5333937      0              54.198703      1994.5443    
    429000   295.929       -5.2486921      0              56.681013      2010.5797    
    430000   297.8888      -5.4590293      0              56.880807      2098.7107    
    431000   316.60294     -4.6078883      0              61.648298      2123.7111    
    432000   302.6514      -4.8466811      0              58.489836      2095.7417    
    433000   300.15938     -6.096099       0              56.718907      1953.5394    
    434000   301.67455     -3.3849481      0              59.74714       2136.3129    
    435000   298.5909      -5.2516676      0              57.235099      2092.6855    
    436000   304.6631      -5.3478561      0              58.409654      2061.0744    
    437000   298.24031     -4.2375401      0              58.175857      2071.9798    
    438000   291.17483     -4.6100741      0              56.324715      2075.3628    
    439000   296.73449     -5.7204235      0              56.377849      2002.0334    
    440000   291.11068     -5.9422453      0              54.979119      2029.3237    
    441000   295.50144     -4.334332       0              57.505897      2072.53      
    442000   292.07267     -5.1972948      0              55.925388      2029.4495    
    443000   293.30804     -4.3253698      0              57.055842      2179.1251    
    444000   307.39074     -4.6636832      0              59.664645      2074.6408    
    445000   311.65241     -4.2548537      0              60.965324      2088.8369    
    446000   294.33423     -5.764973       0              55.830992      2020.7253    
    447000   301.41277     -4.9125721      0              58.164733      2050.0317    
    448000   303.35723     -3.9449783      0              59.539248      2116.8237    
    449000   301.74628     -3.9946489      0              59.152451      2065.5355    
    450000   304.57085     -4.9170026      0              58.821202      2081.4974    
    451000   302.60243     -3.533806       0              59.792463      2191.4718    
    452000   297.60349     -5.1837585      0              57.096371      2042.7648    
    453000   296.68722     -5.8157115      0              56.272667      2026.4222    
    454000   299.72562     -4.9105923      0              57.81364       2183.8823    
    455000   294.05166     -3.1449115      0              58.39192       2223.0671    
    456000   300.13212     -3.4137744      0              59.395526      2127.2211    
    457000   302.54923     -4.6634938      0              58.651641      2160.5912    
    458000   300.0069      -5.3075633      0              57.475533      2144.5584    
    459000   306.97717     -4.6419944      0              59.599785      2192.7861    
    460000   297.58972     -4.5455832      0              57.731665      2116.0621    
    461000   295.6963      -5.3868643      0              56.494144      2113.2979    
    462000   299.14292     -5.8734809      0              56.728808      2085.2194    
    463000   305.29402     -5.3112369      0              58.578307      2002.6416    
    464000   293.84188     -4.3852868      0              57.107642      2150.1317    
    465000   298.03186     -4.8054296      0              57.564345      2068.3572    
    466000   297.43479     -5.1414363      0              57.10339       1997.8477    
    467000   302.24868     -4.484213       0              58.768025      2096.3014    
    468000   302.30149     -4.089048       0              59.174241      2082.5639    
    469000   299.36565     -6.5098609      0              56.13904       2025.8284    
    470000   289.57859     -4.8070793      0              55.793661      2059.8153    
    471000   299.26553     -5.256057       0              57.371891      2028.2452    
    472000   307.5662      -5.537665       0              58.827382      2132.2858    
    473000   300.31563     -4.7400292      0              58.107676      2081.8158    
    474000   301.44397     -3.2430307      0              59.840804      2140.2832    
    475000   307.11747     -3.2818044      0              60.989336      2172.4632    
    476000   295.16501     -5.5675168      0              56.202306      1971.1257    
    477000   303.24196     -3.1289095      0              60.331195      2028.8357    
    478000   303.86397     -6.8184145      0              56.771858      2026.963     
    479000   298.78393     -6.1168106      0              56.410352      2086.2293    
    480000   298.42832     -4.6871085      0              57.765636      2101.8209    
    481000   309.65707     -5.7041687      0              59.098441      2175.0911    
    482000   295.27128     -4.2717143      0              57.520348      2070.687     
    483000   297.28006     -6.0459265      0              56.166518      2072.8764    
    484000   303.58526     -4.0578649      0              59.474083      2119.3256    
    485000   295.38656     -3.5341244      0              58.282064      2099.1452    
    486000   301.82503     -4.230493       0              58.933087      2089.9014    
    487000   298.68104     -3.523815       0              58.981816      2173.5153    
    488000   302.00446     -5.2133394      0              57.987791      2034.6703    
    489000   306.28608     -5.7223979      0              58.374756      1982.5384    
    490000   299.11497     -3.6199512      0              58.976489      2188.1484    
    491000   305.77182     -4.7929074      0              59.196627      2095.2435    
    492000   308.99595     -2.659718       0              62.004537      2106.3996    
    493000   301.12415     -3.6502692      0              59.366638      2114.5518    
    494000   294.18656     -3.9318112      0              57.633251      2104.3978    
    495000   310.8653      -4.5358761      0              60.519581      2135.414     
    496000   303.36071     -5.3412819      0              58.143674      2119.3063    
    497000   304.65465     -3.808804       0              59.946936      2163.9231    
    498000   295.14322     -5.6413228      0              56.12394       2057.8787    
    499000   298.69067     -5.7980132      0              56.709632      1992.1262    
    500000   303.63822     -5.4360443      0              58.106987      2011.5633    
    501000   305.24915     -5.0571877      0              58.822965      1923.3244    
    502000   305.56426     -4.6368807      0              59.309216      2122.9872    
    503000   299.44238     -5.9879818      0              56.676977      2158.8808    
    504000   302.36326     -4.2294235      0              59.046794      2177.8277    
    505000   298.98941     -4.655943       0              57.914221      2164.7791    
    506000   301.56603     -3.3058454      0              59.803533      2221.0334    
    507000   299.5753      -6.34132        0              56.351455      2076.8105    
    508000   296.56178     -5.1402596      0              56.921868      2044.402     
    509000   306.87019     -3.4631958      0              60.756196      2182.3433    
    510000   294.50342     -4.8545456      0              56.776826      2126.3662    
    511000   305.06781     -4.6644005      0              59.177803      2126.7495    
    512000   292.11295     -4.4158538      0              56.715259      2058.334     
    513000   309.2515      -4.0177583      0              60.699977      2129.3265    
    514000   303.80687     -4.3499547      0              59.228369      2098.7096    
    515000   297.97062     -5.2168201      0              57.14014       2099.4986    
    516000   292.15967     -4.4980735      0              56.642816      1945.0678    
    517000   298.12334     -6.4248039      0              55.964116      1963.4175    
    518000   291.48562     -5.1047073      0              55.895122      1979.283     
    519000   291.41383     -3.5500684      0              57.434738      2159.3687    
    520000   303.11683     -4.416476       0              59.017443      2051.7758    
    521000   307.2978      -5.0133156      0              59.295563      2031.3907    
    522000   309.9581      -5.1567217      0              59.708884      2116.623     
    523000   292.09036     -5.8882804      0              55.238104      1960.6322    
    524000   302.61513     -4.4859215      0              58.843005      2032.0139    
    525000   293.70043     -5.4514921      0              56.011837      2002.0825    
    526000   285.03931     -4.4229863      0              55.227809      2080.9492    
    527000   291.44735     -5.4554563      0              55.536364      2074.9302    
    528000   290.10095     -3.9621655      0              56.747891      2104.9685    
    529000   296.58198     -5.8928392      0              56.173518      2046.1217    
    530000   299.11048     -5.5030011      0              57.0925        2135.5556    
    531000   308.61288     -3.9743928      0              60.609695      2163.4678    
    532000   302.38204     -6.2531046      0              57.027042      2030.1465    
    533000   297.19133     -3.9173957      0              58.276481      2089.5051    
    534000   299.52204     -4.1148061      0              58.566823      2111.6351    
    535000   293.69267     -6.6846606      0              54.777043      1996.9741    
    536000   302.62255     -5.2548755      0              58.075603      2139.9186    
    537000   301.62822     -5.325341       0              57.797053      2090.2361    
    538000   306.32477     -4.0773219      0              60.027929      2091.183     
    539000   306.97958     -3.639201       0              60.603083      2176.4693    
    540000   301.93        -6.563724       0              56.621823      2060.3685    
    541000   306.08171     -2.4737872      0              61.580598      2101.5084    
    542000   297.05714     -5.2668392      0              56.898954      2127.4513    
    543000   302.58057     -4.2072004      0              59.114494      2100.8599    
    544000   299.72836     -4.29707        0              58.427735      2009.1645    
    545000   289.64345     -4.5195032      0              56.094811      2207.9607    
    546000   308.51757     -6.2223604      0              58.341782      2047.494     
    547000   301.46172     -4.5236162      0              58.563933      2106.0452    
    548000   299.63607     -5.3871657      0              57.318327      2087.6852    
    549000   296.16401     -5.1466291      0              56.832258      1996.3738    
    550000   295.10997     -5.0074507      0              56.750855      2014.651     
    551000   295.98508     -6.0142935      0              55.927149      2120.0021    
    552000   301.52214     -3.7195375      0              59.380656      2123.8025    
    553000   295.0662      -4.8698061      0              56.87934       2019.3408    
    554000   293.98731     -4.4555086      0              57.067855      2065.027     
    555000   300.42297     -4.4932985      0              58.37687       2023.6268    
    556000   299.38016     -4.7908446      0              57.861093      2123.2378    
    557000   295.80221     -4.4892067      0              57.413965      2093.0446    
    558000   302.08329     -4.6422532      0              58.575375      2132.1602    
    559000   304.72424     -3.4731682      0              60.297137      2152.7516    
    560000   306.78509     -5.3389861      0              58.862596      2147.2949    
    561000   294.34014     -5.9285915      0              55.668609      1974.6733    
    562000   289.56387     -4.7384215      0              55.859238      2047.7501    
    563000   302.22735     -4.5140274      0              58.733746      2147.5144    
    564000   307.40883     -3.5702044      0              60.76191       2145.6687    
    565000   294.29693     -5.738259       0              55.8499        2076.1347    
    566000   301.42716     -7.1994923      0              55.880824      1918.0337    
    567000   301.96998     -5.5916387      0              57.602276      2084.1685    
    568000   295.83585     -5.4303146      0              56.479897      2039.3084    
    569000   305.09212     -4.8665805      0              58.980711      2046.4969    
    570000   301.46242     -4.5792686      0              58.508427      2071.2114    
    571000   292.34191     -4.9785341      0              56.200492      2083.4157    
    572000   298.45602     -4.6009336      0              57.857606      2118.4017    
    573000   299.21784     -4.3672164      0              58.250753      2061.9923    
    574000   307.44507     -4.4088215      0              59.930877      1998.2651    
    575000   301.2653      -5.5456569      0              57.500787      2015.1833    
    576000   290.15579     -3.6063397      0              57.115194      2203.1983    
    577000   301.42235     -5.4007137      0              57.678598      1963.4357    
    578000   299.60089     -4.9837689      0              57.714362      2105.7707    
    579000   292.54256     -6.1894359      0              55.031581      1976.8797    
    580000   301.97636     -4.6224833      0              58.572767      2072.5956    
    581000   299.25835     -5.9051595      0              56.721287      2072.8048    
    582000   300.29676     -3.7294183      0              59.114338      2078.4631    
    583000   304.89929     -5.7996708      0              58.007267      2139.686     
    584000   292.78077     -5.5841668      0              55.686702      2086.6576    
    585000   299.1331      -7.2796914      0              55.320542      1844.8417    
    586000   302.04757     -5.3351171      0              57.875035      2029.8695    
    587000   299.06959     -4.8204327      0              57.76651       2020.0286    
    588000   301.63422     -5.6627526      0              57.460897      2057.5225    
    589000   297.86307     -3.1441014      0              59.190351      2099.1372    
    590000   303.9562      -3.650951       0              59.958624      2201.8791    
    591000   288.67533     -3.9363531      0              56.475362      2080.3887    
    592000   301.58618     -4.6330708      0              58.480525      2157.8148    
    593000   301.82922     -3.1643586      0              60.0001        2079.2338    
    594000   295.66904     -3.623107       0              58.252197      2099.8896    
    595000   296.13441     -5.9085876      0              56.064105      2002.1421    
    596000   299.07778     -5.522712       0              57.065945      2094.8646    
    597000   300.64643     -4.5024544      0              58.414478      2068.1999    
    598000   286.59093     -4.2180944      0              55.757412      1994.8143    
    599000   306.15802     -3.8690524      0              60.201302      2096.5544    
    600000   295.363       -6.7550843      0              55.056174      2029.2635    
    601000   305.02285     -6.3309998      0              57.501796      2072.6681    
    602000   291.68526     -4.3231534      0              56.718456      2077.2477    
    603000   305.39099     -5.2853711      0              58.624464      2118.8899    
    604000   292.26971     -3.9390396      0              57.224879      2006.0683    
    605000   306.05371     -2.6172261      0              61.431299      2156.7905    
    606000   299.36127     -5.6278959      0              57.020087      2158.8325    
    607000   300.7389      -4.6689548      0              58.26733       2188.1454    
    608000   299.82231     -4.7296748      0              58.014792      2027.9458    
    609000   297.52888     -3.7881862      0              58.47633       2074.455     
    610000   307.10796     -4.3570082      0              59.912143      2174.5499    
    611000   303.76301     -5.2633984      0              58.305747      2031.2239    
    612000   297.99154     -3.036453       0              59.324884      2072.3114    
    613000   298.20571     -3.8900171      0              58.516139      2095.2116    
    614000   307.38773     -4.3207638      0              60.006934      2068.3096    
    615000   285.49611     -2.5427574      0              57.203634      2114.9421    
    616000   300.79473     -3.5666297      0              59.381338      2111.52      
    617000   302.27231     -4.8663394      0              58.390844      2054.3872    
    618000   290.92281     -5.2053577      0              55.676692      2006.6596    
    619000   298.11559     -2.9401006      0              59.447197      2206.5321    
    620000   298.4274      -5.1044724      0              57.348078      2063.718     
    621000   303.92983     -5.3560883      0              58.247968      2098.685     
    622000   301.23542     -5.3949985      0              57.645192      2072.9685    
    623000   300.59449     -5.454863       0              57.4512        2013.1746    
    624000   301.69432     -4.8546717      0              58.281555      2094.3614    
    625000   290.33062     -5.0970858      0              55.661036      2111.7883    
    626000   283.05273     -3.6498492      0              55.585212      2001.9343    
    627000   305.513       -3.9783039      0              59.957067      2096.8323    
    628000   299.18581     -3.1469736      0              59.464291      2235.8679    
    629000   291.84789     -6.3277164      0              54.747926      2089.455     
    630000   297.50591     -3.6837154      0              58.575993      2169.606     
    631000   303.12707     -4.7380284      0              58.698034      2122.304     
    632000   295.16594     -6.7579478      0              55.01207       2018.7517    
    633000   300.30361     -5.6261693      0              57.219021      2005.5417    
    634000   293.47904     -4.300448       0              57.116549      2087.4545    
    635000   302.66191     -4.6077425      0              58.730973      2010.7334    
    636000   303.22726     -4.4727307      0              58.984297      2095.8586    
    637000   300.1719      -4.861355       0              57.956272      2015.2327    
    638000   297.77316     -5.3955879      0              56.920049      1983.8762    
    639000   300.21287     -3.0485601      0              59.777641      2118.6384    
    640000   307.08167     -4.2232108      0              60.040438      2241.4908    
    641000   302.2868      -3.4052988      0              59.854918      2191.4034    
    642000   298.7536      -4.3452902      0              58.175526      2044.3672    
    643000   305.95472     -4.8571913      0              59.170619      2066.0157    
    644000   297.87961     -5.8910064      0              56.446906      2040.4359    
    645000   301.03696     -4.5821061      0              58.416552      2091.3893    
    646000   297.39564     -4.3508813      0              57.88575       2053.9803    
    647000   296.67583     -3.4168479      0              58.669149      2053.7811    
    648000   297.56569     -2.607291       0              59.664928      2167.55      
    649000   309.77551     -3.8241223      0              61.003273      2074.4       
    650000   297.78597     -4.9031227      0              57.415195      2125.8536    
    651000   298.05174     -5.3251081      0              57.048828      2063.7163    
    652000   299.35332     -3.0306595      0              59.61566       2101.0363    
    653000   303.78665     -3.803312       0              59.770781      2134.347     
    654000   294.1624      -4.3232539      0              57.236751      2055.6914    
    655000   300.47657     -5.7447778      0              57.136607      2061.2401    
    656000   297.35419     -4.1101995      0              58.117758      2118.4042    
    657000   312.22738     -5.2708959      0              60.069608      2125.2072    
    658000   303.50112     -4.9413596      0              58.572979      2047.8359    
    659000   293.87293     -5.4546403      0              56.044787      1989.7215    
    660000   294.02123     -4.4825034      0              57.047959      2124.7544    
    661000   296.57916     -4.2781602      0              57.787605      2003.6217    
    662000   291.40336     -3.9256291      0              57.056985      2066.7278    
    663000   294.05797     -3.2968476      0              58.241303      2149.6868    
    664000   293.58124     -4.0226524      0              57.415731      2125.529     
    665000   300.65887     -3.4692152      0              59.450321      2187.1871    
    666000   304.29985     -4.1673144      0              59.514178      2047.7469    
    667000   301.63987     -5.531613       0              57.593218      2028.5451    
    668000   293.4839      -5.7667205      0              55.651294      2022.5185    
    669000   301.50793     -4.6107056      0              58.486514      2075.8601    
    670000   303.00174     -5.0300349      0              58.379798      2122.7028    
    671000   304.25762     -4.7397366      0              58.932917      2082.5266    
    672000   302.03562     -5.2544852      0              57.953165      2045.301     
    673000   297.98215     -4.8053797      0              57.553994      2072.4624    
    674000   306.5253      -3.9032601      0              60.243956      2151.6931    
    675000   297.4597      -3.9922927      0              58.257745      2164.8798    
    676000   306.3775      -4.9395167      0              59.176768      2048.7969    
    677000   295.54257     -5.4490463      0              56.39979       2070.2273    
    678000   307.15373     -4.0875378      0              60.191192      2119.8295    
    679000   299.23131     -3.8654457      0              58.755341      2147.7964    
    680000   308.13541     -5.1705897      0              59.313577      2133.3057    
    681000   291.28637     -3.0697407      0              57.888391      2018.6622    
    682000   300.16563     -4.3727176      0              58.443596      2110.6522    
    683000   285.85124     -4.5862033      0              55.234507      2043.3433    
    684000   300.68563     -3.6712543      0              59.253882      2149.9688    
    685000   305.01839     -4.8715569      0              58.960305      2167.1519    
    686000   300.69741     -6.2607781      0              56.666823      2034.0699    
    687000   297.7216      -3.0884656      0              59.216381      2158.3462    
    688000   302.3334      -3.6124613      0              59.657507      2049.495     
    689000   286.18374     -5.3404639      0              54.54983       1985.6602    
    690000   306.50583     -5.249353       0              58.893788      2088.6043    
    691000   298.47682     -5.5051449      0              56.957749      2047.7997    
    692000   290.1948      -4.197179       0              56.532517      2147.691     
    693000   296.44815     -5.8564325      0              56.181917      1985.6979    
    694000   300.8348      -3.3699302      0              59.586424      2123.9479    
    695000   301.04274     -4.0177044      0              58.982165      2114.2455    
    696000   294.92951     -2.405616       0              59.314925      2175.2579    
    697000   305.96262     -3.9513132      0              60.078149      2050.9717    
    698000   300.47785     -3.888816       0              58.992838      2083.3961    
    699000   294.62906     -4.4113732      0              57.246292      2153.8552    
    700000   293.61123     -4.8369059      0              56.607756      1989.2931    
    701000   297.52144     -5.7824828      0              56.480476      2077.8707    
    702000   295.84151     -6.1802083      0              55.731189      2100.8136    
    703000   300.3181      -4.0886255      0              58.759597      2111.1673    
    704000   299.2856      -4.6513736      0              57.980774      2097.682     
    705000   300.59753     -4.2647507      0              58.641949      2096.4082    
    706000   295.34684     -4.545663       0              57.262212      2054.6084    
    707000   306.44714     -5.4554321      0              58.675427      1961.2387    
    708000   302.62471     -5.5290839      0              57.801848      2149.8888    
    709000   306.13461     -5.8853213      0              58.180135      1999.7767    
    710000   290.81459     -6.2814592      0              54.577943      1966.4571    
    711000   297.38846     -4.5015302      0              57.7336        1998.0118    
    712000   309.54095     -5.7502656      0              59.028041      2054.8989    
    713000   301.73621     -4.2129711      0              58.932022      2118.8828    
    714000   302.29423     -2.8308014      0              60.43097       2178.2749    
    715000   302.73802     -3.0158474      0              60.338797      2197.6692    
    716000   293.27449     -6.5411205      0              54.83307       1983.3956    
    717000   304.3193      -3.900081       0              59.785481      2108.1648    
    718000   300.85624     -3.7951287      0              59.16571       2146.181     
    719000   308.69115     -3.8009669      0              60.799501      2112.1676    
    720000   296.1068      -4.3782671      0              57.588648      2116.5144    
    721000   302.27789     -3.5082827      0              59.750069      2149.6047    
    722000   300.44361     -3.0196006      0              59.854888      2092.4665    
    723000   301.38381     -4.7044516      0              58.366794      1996.6422    
    724000   288.6634      -4.7732467      0              55.635971      1991.7292    
    725000   290.48248     -3.3908141      0              57.399086      2133.3919    
    726000   295.96563     -3.5215722      0              58.415799      2083.4408    
    727000   306.13101     -4.9823786      0              59.082325      2039.8798    
    728000   301.94402     -5.2690942      0              57.919387      2121.7092    
    729000   297.8465      -5.1227489      0              57.208235      2003.407     
    730000   295.51478     -4.7040916      0              57.138928      2100.9334    
    731000   298.85108     -4.4467184      0              58.094498      2148.8116    
    732000   299.95495     -5.3645315      0              57.407693      2023.2388    
    733000   295.80502     -2.4848718      0              59.418889      2119.5689    
    734000   298.58381     -5.4280727      0              57.057211      2087.6941    
    735000   310.29475     -6.3145396      0              58.621518      2125.1371    
    736000   309.35426     -5.4513886      0              59.287851      2050.799     
    737000   293.64713     -4.6929863      0              56.759188      2047.631     
    738000   313.22545     -3.8269488      0              61.722422      2108.2917    
    739000   296.44365     -5.1379608      0              56.899447      2069.8612    
    740000   296.71864     -5.3879427      0              56.707013      2050.1529    
    741000   291.35462     -4.2392646      0              56.733151      2152.4628    
    742000   286.66957     -3.9114517      0              56.080513      2105.8539    
    743000   298.54733     -4.7929768      0              57.684673      1985.4929    
    744000   298.91256     -4.3476227      0              58.206459      2039.6962    
    745000   305.25363     -4.2255274      0              59.655563      2053.6195    
    746000   312.15632     -4.4066189      0              60.919012      1997.307     
    747000   295.44365     -5.0713085      0              56.756827      2202.7238    
    748000   294.48907     -4.8856751      0              56.742693      2037.0461    
    749000   292.78853     -6.2309472      0              55.041546      2131.9854    
    750000   299.11959     -3.7064427      0              58.890964      2155.2202    
    751000   290.49972     -2.5110351      0              58.282473      2210.463     
    752000   297.47356     -5.0187595      0              57.23418       2096.8908    
    753000   306.50001     -4.7385989      0              59.403324      2159.4809    
    754000   296.16596     -4.3230101      0              57.656285      2137.9991    
    755000   308.11005     -4.1264164      0              60.352444      2099.8023    
    756000   297.09884     -4.9589827      0              57.215538      2071.348     
    757000   300.33665     -5.4485922      0              57.403512      2083.478     
    758000   302.15451     -5.3784376      0              57.854094      2049.7798    
    759000   299.72463     -4.4451289      0              58.278896      2134.5091    
    760000   296.15417     -4.7489304      0              57.227896      2073.6443    
    761000   304.05168     -3.5813638      0              60.048193      2291.3668    
    762000   300.83371     -3.489183       0              59.466941      2229.5302    
    763000   301.90227     -5.8287006      0              57.351044      1926.1889    
    764000   299.96872     -5.4040532      0              57.371054      2126.4903    
    765000   306.71289     -5.1295941      0              59.05688       2076.6048    
    766000   305.0448      -4.849535       0              58.987854      2151.3378    
    767000   294.27678     -4.4912634      0              57.092678      2084.3537    
    768000   293.83769     -2.9602497      0              58.531803      2059.7863    
    769000   301.92654     -4.481671       0              58.703153      2110.5777    
    770000   300.33738     -3.1240106      0              59.728246      2146.7159    
    771000   311.89698     -4.3321772      0              60.939181      2169.4569    
    772000   290.71543     -3.7573659      0              57.081284      2093.0518    
    773000   307.54674     -4.2842724      0              60.076702      2213.1847    
    774000   288.78985     -6.7008143      0              53.734866      1981.325     
    775000   304.27362     -4.7425687      0              58.933434      2112.6562    
    776000   297.00804     -5.6010419      0              56.554476      2024.4049    
    777000   308.82553     -3.072347       0              61.556243      2261.4636    
    778000   299.77241     -5.0306753      0              57.703349      2065.6533    
    779000   314.1592      -4.0947527      0              61.650027      2081.7106    
    780000   299.77791     -4.4654717      0              58.269703      2077.5548    
    781000   305.01938     -3.8816783      0              59.95039       2073.7292    
    782000   296.29953     -3.1366879      0              58.87056       2113.3817    
    783000   297.25385     -4.9077373      0              57.299222      2062.2924    
    784000   301.83877     -4.1168119      0              59.049644      2039.9246    
    785000   297.4284      -4.3564287      0              57.88706       2090.1516    
    786000   287.49611     -3.0574309      0              57.107505      2167.3517    
    787000   303.90336     -4.4555093      0              59.143009      2091.0036    
    788000   302.75985     -5.0405774      0              58.318634      2100.0374    
    789000   303.77895     -4.8159046      0              58.756576      2055.8617    
    790000   307.60567     -5.6290535      0              58.744254      2102.4639    
    791000   286.12427     -4.6595552      0              55.218294      2028.8039    
    792000   306.33879     -5.5371782      0              58.571006      2039.5533    
    793000   293.29534     -3.9702123      0              57.408341      2143.8762    
    794000   300.15619     -4.9551638      0              57.859175      2091.9716    
    795000   298.58511     -6.2327352      0              56.252819      2020.9835    
    796000   291.15101     -6.5320478      0              54.397758      1991.9435    
    797000   304.70335     -5.092006       0              58.673927      2067.6838    
    798000   300.04977     -5.5260672      0              57.266002      2027.5653    
    799000   300.75722     -2.8791235      0              60.060993      2151.2727    
    800000   299.64337     -4.4224704      0              58.284549      2121.5836    
    801000   311.26207     -6.0319063      0              59.106583      2086.5103    
    802000   296.80945     -4.5880986      0              57.52586       2154.6571    
    803000   301.48105     -5.2516857      0              57.839909      2124.4422    
    804000   306.40043     -5.1879566      0              58.933128      2148.4579    
    805000   297.56191     -4.2526784      0              58.018751      2062.2689    
    806000   292.31281     -4.1599059      0              57.013031      2067.187     
    807000   294.73707     -1.8565975      0              59.82367       2244.5348    
    808000   305.59012     -2.1144268      0              61.837082      2069.1361    
    809000   304.73917     -3.584566       0              60.188864      2092.7244    
    810000   305.82713     -3.5039912      0              60.497117      2096.0782    
    811000   295.12329     -3.029993       0              58.731099      2194.2328    
    812000   310.92167     -4.8133139      0              60.253941      2074.5581    
    813000   295.20788     -5.2060895      0              56.572706      2020.6243    
    814000   306.35809     -4.4362556      0              59.675968      2043.4965    
    815000   308.30017     -3.0090521      0              61.509596      2046.5663    
    816000   315.45579     -4.2996661      0              61.716453      2223.9682    
    817000   298.22601     -3.8593816      0              58.551024      2079.5879    
    818000   304.08071     -6.4811432      0              57.154488      2047.6681    
    819000   295.98854     -5.3898753      0              56.55229       2070.388     
    820000   306.82209     -5.0212997      0              59.188026      2100.7555    
    821000   303.63813     -4.3265371      0              59.216474      2013.9754    
    822000   293.09985     -4.9033735      0              56.43427       2119.9539    
    823000   299.16965     -4.0660966      0              58.541787      2146.1534    
    824000   306.33571     -3.938647       0              60.168894      2122.7037    
    825000   296.08634     -2.9170883      0              59.045543      2153.1419    
    826000   299.54898     -6.4304616      0              56.256804      2032.5073    
    827000   294.13708     -5.0991844      0              56.455522      2028.4434    
    828000   303.52595     -3.7145332      0              59.805002      2097.7356    
    829000   300.86875     -3.50426        0              59.459198      2038.1273    
    830000   291.83801     -4.5133974      0              56.560177      2022.4662    
    831000   298.81477     -4.4211029      0              58.112514      2058.722     
    832000   295.66194     -3.7563365      0              58.117481      2188.4761    
    833000   301.33449     -3.8501216      0              59.210803      2079.4307    
    834000   313.65959     -3.1097867      0              62.530438      2162.7635    
    835000   297.31155     -4.6903772      0              57.528658      2055.485     
    836000   293.86725     -4.1755988      0              57.32264       2081.466     
    837000   293.99145     -5.3447104      0              56.179519      2128.2422    
    838000   298.41332     -5.2689551      0              57.180648      2122.6852    
    839000   306.88237     -5.6193702      0              58.60257       2045.032     
    840000   292.9544      -4.2597506      0              57.047455      1987.1257    
    841000   290.93241     -5.3452485      0              55.53881       2088.373     
    842000   299.34637     -5.0107253      0              57.634141      2021.4707    
    843000   300.56927     -3.5373968      0              59.363388      2157.0284    
    844000   298.04178     -4.2291779      0              58.142673      2058.5004    
    845000   295.85911     -3.6359345      0              58.279145      2163.3614    
[...]
   1814000   297.65779     -3.6003635      0              58.69113       2144.9161    
   1815000   293.66758     -5.3505407      0              56.105912      2046.6926    
   1816000   304.966       -4.9917529      0              58.829145      2108.0602    
   1817000   298.40915     -3.5944831      0              58.854249      2159.8727    
   1818000   305.50434     -3.5731676      0              60.36039       2145.2694    
   1819000   302.97738     -4.9235853      0              58.481149      2089.6559    
   1820000   302.56216     -5.3684974      0              57.949343      2159.3847    
   1821000   304.36882     -4.0616242      0              59.634301      2148.5392    
   1822000   302.14607     -5.2605767      0              57.970189      2028.7747    
   1823000   314.10878     -4.8798683      0              60.85436       2013.0041    
   1824000   292.29963     -3.462688       0              57.707491      2097.1895    
   1825000   296.52567     -4.484043       0              57.570529      2057.3961    
   1826000   315.62014     -3.6653196      0              62.385194      2188.7437    
   1827000   299.76947     -5.1153685      0              57.618041      2058.7582    
   1828000   304.68809     -4.7203687      0              59.04237       2059.4363    
   1829000   287.66141     -5.0952535      0              55.104274      2135.588     
   1830000   300.7222      -4.2865241      0              58.646264      2078.1562    
   1831000   304.08637     -4.0160107      0              59.620805      2184.7637    
   1832000   293.13312     -4.2207383      0              57.123866      2022.8943    
   1833000   300.48189     -5.3025546      0              57.579943      2115.1425    
   1834000   292.38724     -4.5909753      0              56.597539      1992.2483    
   1835000   297.53753     -4.3650101      0              57.901316      2028.8177    
   1836000   297.71762     -4.7741665      0              57.529848      2095.7151    
   1837000   296.68187     -3.7834366      0              58.303823      2078.4771    
   1838000   297.35386     -3.9487032      0              58.279186      2205.7778    
   1839000   293.55991     -4.7941559      0              56.639766      2134.2935    
   1840000   299.16699     -5.0170283      0              57.590299      2095.4421    
   1841000   297.89174     -4.658173       0              57.68228       2037.2484    
   1842000   298.87536     -3.3275877      0              59.21871       2171.6888    
   1843000   287.14927     -6.0930575      0              53.999294      2152.1695    
   1844000   290.75966     -4.1376786      0              56.710228      2059.1087    
   1845000   307.31115     -4.7050536      0              59.60662       2075.7967    
   1846000   295.26757     -4.6412535      0              57.150034      2044.3672    
   1847000   309.62433     -4.309154       0              60.486602      2105.718     
   1848000   303.16082     -4.0413166      0              59.401807      2136.5849    
   1849000   297.41537     -4.3180265      0              57.922735      2113.2757    
   1850000   291.18827     -6.3444599      0              54.593144      2117.0961    
   1851000   298.26167     -4.1695511      0              58.248316      2127.4275    
   1852000   289.96217     -4.7002691      0              55.980745      2038.3049    
   1853000   306.35248     -4.1895975      0              59.921452      2175.3687    
   1854000   298.5409      -6.1114926      0              56.36481       2063.0764    
   1855000   294.57979     -4.8752631      0              56.77209       2117.174     
   1856000   290.43088     -4.8136344      0              55.965468      1994.5103    
   1857000   291.59144     -4.7085789      0              56.313396      2071.7015    
   1858000   304.34298     -3.5199685      0              60.170548      2147.2266    
   1859000   306.00287     -3.9820649      0              60.05582       2160.5315    
   1860000   300.21546     -4.7667449      0              58.059996      2165.3475    
   1861000   302.08681     -4.5225408      0              58.695823      2138.7558    
   1862000   289.84253     -4.119073       0              56.536904      2094.2418    
   1863000   300.47428     -5.568292       0              57.312614      2082.4291    
   1864000   299.28325     -3.3545552      0              59.277101      2078.5802    
   1865000   304.94954     -4.4776933      0              59.33976       2138.8496    
   1866000   307.81774     -5.6933924      0              58.724295      2076.1516    
   1867000   302.24256     -6.2595963      0              56.991362      1920.9074    
   1868000   302.68187     -4.1438324      0              59.199061      2079.7089    
   1869000   302.93266     -4.0569187      0              59.338457      2164.8897    
   1870000   307.30907     -3.5203809      0              60.790856      2197.6689    
   1871000   294.30234     -5.3477265      0              56.241564      2087.6157    
   1872000   290.89412     -4.5537521      0              56.322293      2034.6805    
   1873000   294.30834     -5.2207152      0              56.369832      1978.208     
   1874000   303.5906      -5.8141308      0              57.718934      2097.802     
   1875000   305.09523     -5.4007835      0              58.447158      2077.5088    
   1876000   308.42712     -3.9028841      0              60.64233       2077.6895    
   1877000   306.03232     -2.555631       0              61.488418      2168.9541    
   1878000   305.26926     -3.7681427      0              60.116219      2096.3028    
   1879000   288.74714     -5.2633186      0              55.163422      1943.6308    
   1880000   297.92133     -6.238221       0              56.108425      2071.3113    
   1881000   301.67564     -3.153443       0              59.978874      2183.3102    
   1882000   302.15827     -6.8186967      0              56.414622      2003.2463    
   1883000   308.75979     -5.5623106      0              59.052521      2092.7028    
   1884000   292.75453     -6.053721       0              55.211656      2031.1157    
   1885000   307.08041     -5.3579872      0              58.905399      2108.1383    
   1886000   306.2032      -4.3925041      0              59.687305      2122.3663    
   1887000   293.73957     -5.4711007      0              56.000418      2028.4685    
   1888000   301.58266     -4.2679127      0              58.844947      2166.6738    
   1889000   298.62811     -3.7410449      0              58.753508      2116.4007    
   1890000   306.32325     -4.236148       0              59.868785      2010.6636    
   1891000   304.22243     -2.8975984      0              60.767692      2188.697     
   1892000   302.78583     -3.9752185      0              59.389431      2126.0906    
   1893000   298.90228     -6.2238291      0              56.328101      2082.2552    
   1894000   302.12485     -5.1691832      0              58.057141      2081.6943    
   1895000   294.68747     -5.6709047      0              55.998983      1942.2068    
   1896000   298.31836     -3.8133555      0              58.616376      2225.0414    
   1897000   289.05        -4.2305277      0              56.259594      2211.0446    
   1898000   296.23258     -5.0183558      0              56.97488       2074.4639    
   1899000   295.79876     -2.1546392      0              59.747811      2177.5597    
   1900000   307.67414     -6.4651629      0              57.922474      2119.1155    
   1901000   297.10791     -4.7277267      0              57.448692      2178.4235    
   1902000   296.05342     -3.5438711      0              58.411872      2149.0552    
   1903000   296.84617     -4.932669       0              57.188975      2056.7485    
   1904000   294.75102     -5.8371612      0              55.846026      2150.5553    
   1905000   300.78082     -5.8853573      0              57.0597        2021.2886    
   1906000   305.75378     -5.0769493      0              58.908809      2117.2029    
   1907000   291.29308     -5.1718796      0              55.787657      1991.4826    
   1908000   293.18417     -6.0368514      0              55.318438      2065.424     
   1909000   296.89975     -5.4868248      0              56.646032      2007.6321    
   1910000   301.31021     -4.8865501      0              58.169292      2055.2106    
   1911000   300.38055     -4.7140227      0              58.147269      2008.4837    
   1912000   298.69744     -6.4671281      0              56.041934      2105.6106    
   1913000   300.51215     -3.3578749      0              59.530957      2103.3813    
   1914000   298.87545     -4.4831494      0              58.063166      2049.6979    
   1915000   302.09593     -5.4470844      0              57.773188      2145.4544    
   1916000   298.51225     -3.8480416      0              58.622267      2024.3015    
   1917000   298.75336     -5.0197488      0              57.501016      2017.061     
   1918000   296.62145     -4.1235187      0              57.951097      2113.2238    
   1919000   312.16042     -4.3889453      0              60.937545      2085.8873    
   1920000   300.31631     -4.8953314      0              57.952516      2074.626     
   1921000   303.47588     -4.7724727      0              58.736585      2126.8401    
   1922000   301.27006     -5.9596355      0              57.087805      1976.6063    
   1923000   305.03181     -3.0621575      0              60.772513      2223.2029    
   1924000   307.42605     -3.4263838      0              60.909334      2112.0349    
   1925000   311.27501     -4.5593776      0              60.581821      2048.6006    
   1926000   299.94099     -5.4138742      0              57.355429      2019.3511    
   1927000   298.91163     -3.9218895      0              58.631998      2060.4122    
   1928000   307.12653     -4.3036306      0              59.969406      2134.4825    
   1929000   302.74443     -2.8943668      0              60.461619      2135.2472    
   1930000   291.91912     -4.3703402      0              56.72021       2082.7084    
   1931000   294.63129     -6.1684089      0              55.489722      2003.3279    
   1932000   295.46515     -5.211311       0              56.621324      1969.2718    
   1933000   288.23584     -4.7478501      0              55.571892      1970.7175    
   1934000   303.14228     -4.4731382      0              58.966105      2068.9752    
   1935000   293.58965     -3.5639366      0              57.876207      2181.1353    
   1936000   300.90316     -3.2750814      0              59.695577      2172.5776    
   1937000   299.3547      -5.4060197      0              57.24059       2058.8462    
   1938000   302.02378     -6.122839       0              57.082334      2096.1777    
   1939000   304.86552     -3.5955218      0              60.204349      2121.7486    
   1940000   299.92218     -4.4129818      0              58.352386      2106.7196    
   1941000   303.935       -3.9949409      0              59.610198      2055.9641    
   1942000   312.79132     -5.2990259      0              60.159495      2116.0477    
   1943000   302.35325     -4.8792699      0              58.394852      2121.8738    
   1944000   306.01876     -3.7749114      0              60.2663        2136.9371    
   1945000   301.50594     -4.7129746      0              58.38383       2025.1589    
   1946000   295.32768     -4.421234       0              57.382632      2081.018     
   1947000   295.53661     -6.484771       0              55.362819      2107.8654    
   1948000   292.22127     -4.8802964      0              56.273484      2062.8421    
   1949000   295.00867     -6.0468214      0              55.690284      1973.0339    
   1950000   300.38371     -3.4101789      0              59.451773      2122.6491    
   1951000   298.81409     -4.801856       0              57.731618      2037.7566    
   1952000   302.04312     -5.971856       0              57.237365      2101.8005    
   1953000   290.52449     -3.0381911      0              57.7605        2133.4636    
   1954000   303.98931     -3.7560754      0              59.860429      2208.2744    
   1955000   299.77367     -4.8017593      0              57.932528      2185.8244    
   1956000   294.21503     -3.7829622      0              57.788057      2187.5276    
   1957000   291.09033     -4.2457028      0              56.671404      2084.222     
   1958000   303.22344     -4.7357759      0              58.720452      2077.391     
   1959000   289.06525     -3.8661834      0              56.627131      2192.0714    
   1960000   296.75726     -4.7320304      0              57.371007      2099.0682    
   1961000   303.02826     -4.072665       0              59.342718      2146.3273    
   1962000   311.31489     -4.3004085      0              60.849135      2170.7578    
   1963000   303.16133     -4.4014125      0              59.041819      2102.1025    
   1964000   310.27885     -4.1150299      0              60.817699      2079.5076    
   1965000   293.9485      -4.939676       0              56.575566      2041.1933    
   1966000   306.41383     -5.2316378      0              58.89225       2093.7937    
   1967000   298.74814     -3.8957175      0              58.623956      2171.9662    
   1968000   301.75716     -2.7047631      0              60.444615      2250.1574    
   1969000   290.50332     -3.1873992      0              57.606862      2076.2896    
   1970000   301.40435     -4.3808891      0              58.694654      2064.5112    
   1971000   295.87833     -5.2978991      0              56.621202      2022.6742    
   1972000   304.14111     -5.0874569      0              58.560815      2030.5008    
   1973000   297.49362     -3.811592       0              58.445545      2005.0045    
   1974000   298.21892     -4.7335651      0              57.675358      2132.5156    
   1975000   296.18418     -3.5251987      0              58.457909      2069.0826    
   1976000   302.01977     -3.897567       0              59.306766      2144.6988    
   1977000   300.06936     -5.2293309      0              57.566836      2055.8643    
   1978000   306.68786     -4.1968916      0              59.984344      2161.9962    
   1979000   299.07514     -4.7896194      0              57.798487      2035.1193    
   1980000   292.85147     -3.7486701      0              57.536994      2112.4764    
   1981000   300.74184     -4.7746093      0              58.162289      2009.8261    
   1982000   300.29404     -4.2083954      0              58.634791      2092.9461    
   1983000   296.52421     -4.3989883      0              57.655277      2021.4325    
   1984000   311.67003     -3.2978029      0              61.926061      2201.2519    
   1985000   296.37149     -3.1100857      0              58.912221      2112.3055    
   1986000   311.99308     -3.8052083      0              61.486263      2134.5094    
   1987000   288.39378     -4.0262154      0              56.326578      2046.4374    
   1988000   302.57229     -6.2629766      0              57.056984      2073.2098    
   1989000   304.77472     -5.1838839      0              58.596985      2009.3615    
   1990000   292.0536      -3.5170874      0              57.601604      2040.6124    
   1991000   303.59729     -3.9585878      0              59.575878      2253.0297    
   1992000   306.40076     -6.737908       0              57.383245      2000.0309    
   1993000   302.43808     -5.2512652      0              58.04061       2082.397     
   1994000   314.52329     -4.1258139      0              61.695159      2163.2039    
   1995000   305.56168     -3.2491389      0              60.696419      2129.5479    
   1996000   303.53233     -6.2502635      0              57.270606      2080.1032    
   1997000   296.51663     -4.8863369      0              57.166342      2055.3766    
   1998000   303.68518     -4.533227       0              59.01963       2092.768     
   1999000   289.95013     -4.3062639      0              56.372231      2073.4113    
   2000000   292.50662     -3.4558339      0              57.757662      2062.2075    
   2000101   303.47517     -4.0107088      0              59.4982        2051.7358    
Loop time of 14081.1 on 16 procs for 2000000 steps with 1620 atoms

Performance: 6.136 ns/day, 3.911 hours/ns, 142.034 timesteps/s
99.9% CPU use with 16 MPI tasks x 1 OpenMP threads

MPI task timing breakdown:
Section |  min time  |  avg time  |  max time  |%varavg| %total
---------------------------------------------------------------
Pair    | 11024      | 11965      | 12910      | 615.0 | 84.97
Bond    | 1.5569     | 1.6134     | 1.689      |   2.6 |  0.01
Neigh   | 16.183     | 16.694     | 17.208     |   9.8 |  0.12
Comm    | 1098.6     | 2044.2     | 2985.4     |1488.6 | 14.52
Output  | 1.11       | 1.1106     | 1.1123     |   0.0 |  0.01
Modify  | 27.957     | 28.316     | 28.643     |   3.2 |  0.20
Other   |            | 24.51      |            |       |  0.17

Nlocal:         101.25 ave         110 max          96 min
Histogram: 3 1 4 1 1 2 1 2 0 1
Nghost:        5055.19 ave        5103 max        5014 min
Histogram: 1 1 4 1 2 2 2 0 1 2
Neighs:        51668.8 ave       60048 max       47188 min
Histogram: 4 2 2 2 2 0 2 0 1 1

Total # of neighbors = 826700
Ave neighs/atom = 510.30864
Ave special neighs/atom = 0
Neighbor list builds = 10404
Dangerous builds = 0
comm_modify cutoff 27.58
compute myRDF all rdf 1129 cutoff 22.58
fix 2 all ave/time 1 1 1 c_myRDF[*] file ljg2_nvt_42rdf.rdf mode vector
run 0 pre yes post no
Generated 0 of 0 mixed pair_coeff terms from geometric mixing rule
WARNING: Compute rdf cutoff less than neighbor cutoff - forcing a needless neighbor list build (src/compute_rdf.cpp:179)
Neighbor list info ...
  update every 1 steps, delay 0 steps, check yes
  max neighbors/atom: 200000, page size: 2000000000
  master list distance cutoff = 27
  ghost atom cutoff = 27.58
  binsize = 13.5, bins = 4 5 4
  4 neighbor lists, perpetual/occasional/extra = 3 1 0
  (1) pair lj/cut, perpetual
      attributes: half, newton on
      pair build: half/bin/newton
      stencil: half/bin/3d
      bin: standard
  (2) pair gauss/cut, perpetual, copy from (1)
      attributes: half, newton on
      pair build: copy
      stencil: none
      bin: none
  (3) pair gauss/cut, perpetual, copy from (1)
      attributes: half, newton on
      pair build: copy
      stencil: none
      bin: none
  (4) compute rdf, occasional
      attributes: half, newton on, cut 24.58
      pair build: half/bin/newton
      stencil: half/bin/3d
      bin: standard
Per MPI rank memory allocation (min/avg/max) = 3.053e+04 | 3.053e+04 | 3.053e+04 Mbytes
   Step          Temp          E_pair         E_mol          TotEng         Press     
   2000101   303.47517     -4.0107088      0              59.4982        2051.7358    
Loop time of 5.11275e-06 on 16 procs for 0 steps with 1620 atoms

uncompute myRDF
unfix 2
write_data ljg2_nvt_42/ca_md.data nocoeff nofix
System init for write_data ...
Generated 0 of 0 mixed pair_coeff terms from geometric mixing rule
Neighbor list info ...
  update every 1 steps, delay 0 steps, check yes
  max neighbors/atom: 200000, page size: 2000000000
  master list distance cutoff = 27
  ghost atom cutoff = 27.58
  binsize = 13.5, bins = 4 5 4
  3 neighbor lists, perpetual/occasional/extra = 3 0 0
  (1) pair lj/cut, perpetual
      attributes: half, newton on
      pair build: half/bin/newton
      stencil: half/bin/3d
      bin: standard
  (2) pair gauss/cut, perpetual, copy from (1)
      attributes: half, newton on
      pair build: copy
      stencil: none
      bin: none
  (3) pair gauss/cut, perpetual, copy from (1)
      attributes: half, newton on
      pair build: copy
      stencil: none
      bin: none
Total wall time: 3:54:42
