region box block 0 52.794504272175 0 54.794296100667 0 45.195295323908
units metal
dimension 3
boundary p p p
atom_style full
create_box 1 box
Created orthogonal box = (0 0 0) to (52.794504 54.794296 45.195295)
  2 by 4 by 2 MPI processor grid
create_atoms 1 random 1620 44 box
Created 1620 atoms
  using lattice units in orthogonal box = (0 0 0) to (52.794504 54.794296 45.195295)
  create_atoms CPU = 0.003 seconds
mass 1 40.078
pair_style hybrid/overlay lj/cut 25 gauss/cut 25 gauss/cut 25
pair_coeff 1 1 lj/cut 0.009507177838705264 3.7584971993521488
pair_coeff 1 1 gauss/cut 1 -0.0597999248039827 5.991246456844763 0.601172550524922
pair_coeff 1 1 gauss/cut 2 0.0726183915985775 5.919659952808235 0.9307156951487607
run 1
WARNING: No fixes with time integration, atoms won't move (src/verlet.cpp:60)
Generated 0 of 0 mixed pair_coeff terms from geometric mixing rule
Neighbor list info ...
  update every 1 steps, delay 10 steps, check yes
  max neighbors/atom: 2000, page size: 100000
  master list distance cutoff = 27
  ghost atom cutoff = 27
  binsize = 13.5, bins = 4 5 4
  3 neighbor lists, perpetual/occasional/extra = 3 0 0
  (1) pair lj/cut, perpetual
      attributes: half, newton on
      pair build: half/bin/newton
      stencil: half/bin/3d
      bin: standard
  (2) pair gauss/cut, perpetual, copy from (1)
      attributes: half, newton on
      pair build: copy
      stencil: none
      bin: none
  (3) pair gauss/cut, perpetual, copy from (1)
      attributes: half, newton on
      pair build: copy
      stencil: none
      bin: none
Per MPI rank memory allocation (min/avg/max) = 6.988 | 6.995 | 7.006 Mbytes
   Step          Temp          E_pair         E_mol          TotEng         Press     
         0   0              7.1183986e+12  0              7.1183986e+12  3.4892765e+14
         1   0              7.1183986e+12  0              7.1183986e+12  3.4892765e+14
Loop time of 0.0136753 on 16 procs for 1 steps with 1620 atoms

Performance: 6.318 ns/day, 3.799 hours/ns, 73.125 timesteps/s
98.7% CPU use with 16 MPI tasks x 1 OpenMP threads

MPI task timing breakdown:
Section |  min time  |  avg time  |  max time  |%varavg| %total
---------------------------------------------------------------
Pair    | 0.0065717  | 0.0085446  | 0.013282   |   1.6 | 62.48
Bond    | 8.88e-07   | 9.9181e-07 | 1.322e-06  |   0.0 |  0.01
Neigh   | 0          | 0          | 0          |   0.0 |  0.00
Comm    | 0.00030823 | 0.0050391  | 0.0070015  |   2.0 | 36.85
Output  | 4.277e-05  | 5.0819e-05 | 5.7068e-05 |   0.0 |  0.37
Modify  | 1.407e-06  | 1.6229e-06 | 2.261e-06  |   0.0 |  0.01
Other   |            | 3.815e-05  |            |       |  0.28

Nlocal:         101.25 ave         119 max          88 min
Histogram: 2 1 3 3 2 0 1 2 1 1
Nghost:        5058.06 ave        5198 max        4954 min
Histogram: 2 1 2 3 3 1 2 1 0 1
Neighs:        51644.1 ave       62556 max       41292 min
Histogram: 1 1 1 2 3 4 2 0 1 1

Total # of neighbors = 826306
Ave neighs/atom = 510.06543
Ave special neighs/atom = 0
Neighbor list builds = 0
Dangerous builds = 0
thermo 1000
neighbor 2.0 bin
neigh_modify every 1 delay 0 check yes one 200000 page 2000000000
minimize 0.0 1.0e-8 100 1000
Generated 0 of 0 mixed pair_coeff terms from geometric mixing rule
Neighbor list info ...
  update every 1 steps, delay 0 steps, check yes
  max neighbors/atom: 200000, page size: 2000000000
  master list distance cutoff = 27
  ghost atom cutoff = 27
  binsize = 13.5, bins = 4 5 4
  3 neighbor lists, perpetual/occasional/extra = 3 0 0
  (1) pair lj/cut, perpetual
      attributes: half, newton on
      pair build: half/bin/newton
      stencil: half/bin/3d
      bin: standard
  (2) pair gauss/cut, perpetual, copy from (1)
      attributes: half, newton on
      pair build: copy
      stencil: none
      bin: none
  (3) pair gauss/cut, perpetual, copy from (1)
      attributes: half, newton on
      pair build: copy
      stencil: none
      bin: none
Per MPI rank memory allocation (min/avg/max) = 2.29e+04 | 2.29e+04 | 2.29e+04 Mbytes
   Step          Temp          E_pair         E_mol          TotEng         Press     
         1   0              7.1183986e+12  0              7.1183986e+12  3.4892765e+14
       101   0             -48.568749      0             -48.568749      776.56345    
Loop time of 1.12358 on 16 procs for 100 steps with 1620 atoms

100.0% CPU use with 16 MPI tasks x 1 OpenMP threads

Minimization stats:
  Stopping criterion = max iterations
  Energy initial, next-to-last, final = 
       7118398637169.3  -48.3523372142987  -48.5687487702031
  Force two-norm initial, final = 4.1540911e+14 0.44581145
  Force max component initial, final = 1.7832709e+14 0.060396351
  Final line search alpha, max atom move = 1 0.060396351
  Iterations, force evaluations = 100 119

MPI task timing breakdown:
Section |  min time  |  avg time  |  max time  |%varavg| %total
---------------------------------------------------------------
Pair    | 0.75468    | 0.91324    | 1.0696     |   8.2 | 81.28
Bond    | 9.7916e-05 | 0.00010493 | 0.0001096  |   0.0 |  0.01
Neigh   | 0.0086383  | 0.010068   | 0.010978   |   0.7 |  0.90
Comm    | 0.03817    | 0.19541    | 0.35538    |  17.8 | 17.39
Output  | 5.3881e-05 | 5.5829e-05 | 5.8812e-05 |   0.0 |  0.00
Modify  | 0          | 0          | 0          |   0.0 |  0.00
Other   |            | 0.004696   |            |       |  0.42

Nlocal:         101.25 ave         120 max          92 min
Histogram: 3 3 2 3 2 1 1 0 0 1
Nghost:        5060.25 ave        5148 max        4970 min
Histogram: 1 0 1 3 3 2 4 1 0 1
Neighs:        51641.4 ave       60678 max       43332 min
Histogram: 2 1 2 1 3 2 0 2 2 1

Total # of neighbors = 826262
Ave neighs/atom = 510.03827
Ave special neighs/atom = 0
Neighbor list builds = 6
Dangerous builds = 0
timestep 0.0005
fix 1 all nvt temp 300.0 300.0 $(100.0*dt)
fix 1 all nvt temp 300.0 300.0 0.050000000000000002776
fix removeMomentum all momentum 1 linear 1 1 1
dump 1 all custom 1000 ljg2_nvt_44/ca.traj id mol type mass x y z
dump_modify 1 sort id
run 2000000
Generated 0 of 0 mixed pair_coeff terms from geometric mixing rule
Per MPI rank memory allocation (min/avg/max) = 2.289e+04 | 2.289e+04 | 2.289e+04 Mbytes
   Step          Temp          E_pair         E_mol          TotEng         Press     
       101   0             -48.568749      0             -48.568749      776.56345    
      1000   162.611       -46.343843      0             -12.313886      1245.0074    
      2000   288.46915     -12.652951      0              47.715615      1832.0963    
      3000   307.8843      -8.1221853      0              56.309433      1928.0727    
      4000   304.74198     -5.0336863      0              58.740331      2108.3833    
      5000   299.19765     -5.3371964      0              57.276546      2089.5063    
      6000   303.71169     -5.0654988      0              58.492908      2202.691     
      7000   297.93521     -5.35465        0              56.9949        2021.5674    
      8000   291.61696     -4.5342141      0              56.493102      2045.0503    
      9000   303.85321     -5.029495       0              58.558526      2146.1015    
     10000   293.81176     -4.5590875      0              56.927539      2077.8693    
     11000   304.54083     -4.8777437      0              58.854178      2023.5376    
     12000   301.62052     -4.591113       0              58.52967       2179.5379    
     13000   304.21305     -3.8703704      0              59.792955      2157.4147    
     14000   296.9648      -4.5468249      0              57.599645      2011.5897    
     15000   299.46444     -4.414409       0              58.255165      2206.4334    
     16000   305.25884     -6.2293417      0              57.652839      2047.3867    
     17000   296.70398     -4.4764228      0              57.615464      2078.7953    
     18000   301.87182     -5.1480682      0              58.025304      2136.5886    
     19000   301.73744     -4.6175222      0              58.527728      1979.7551    
     20000   296.91734     -4.2794005      0              57.857137      2047.8115    
     21000   302.16752     -4.2694455      0              58.965809      2226.9834    
     22000   296.05508     -5.2275933      0              56.728496      2035.5485    
     23000   296.53261     -3.9508216      0              58.105203      2155.4401    
     24000   288.98324     -4.3448954      0              56.131257      2105.8515    
     25000   296.22269     -3.9961556      0              57.995011      2113.5879    
     26000   301.96801     -4.1801985      0              59.013304      2108.1824    
     27000   297.05946     -6.0463836      0              56.119895      2166.5402    
     28000   294.00212     -4.7390261      0              56.787436      2033.0501    
     29000   304.97811     -4.5318822      0              59.291551      2014.5274    
     30000   285.00588     -5.339977       0              54.303823      2068.4612    
     31000   308.77353     -4.7225683      0              59.895141      2178.14      
     32000   292.74059     -5.326108       0              55.936352      1957.3994    
     33000   296.61671     -4.8712782      0              57.202347      1997.5112    
     34000   286.35583     -3.6963231      0              56.229983      2102.5071    
     35000   306.24077     -4.94197        0              59.145701      2156.4101    
     36000   293.70477     -5.415752       0              56.048484      2057.8215    
     37000   303.35363     -5.9171254      0              57.566348      2081.1904    
     38000   298.87009     -3.6059706      0              58.939223      2143.2039    
     39000   300.95899     -5.0772563      0              57.905085      2055.7046    
     40000   294.13359     -6.1174087      0              55.436568      2008.3809    
     41000   300.33486     -4.1300961      0              58.721633      2114.9852    
     42000   301.22419     -3.382798       0              59.655044      2154.5509    
     43000   309.29462     -4.0966295      0              60.630129      2198.5031    
     44000   296.47406     -2.2952066      0              59.748565      2046.6096    
     45000   298.77158     -4.593027       0              57.931552      2171.2148    
     46000   301.97753     -3.5853663      0              59.610129      2128.7277    
     47000   302.21516     -5.9045448      0              57.340678      2076.7863    
     48000   305.9885      -3.9818362      0              60.053043      2032.9559    
     49000   304.00309     -4.7249127      0              58.894475      2117.8862    
     50000   298.64843     -5.0501304      0              57.448677      2126.1428    
     51000   307.56566     -3.3417422      0              61.023191      2174.7892    
     52000   307.25931     -3.8302031      0              60.47062       2067.1985    
     53000   292.38805     -5.0372299      0              56.151453      2031.4691    
     54000   305.77484     -6.2160285      0              57.774137      1979.4236    
     55000   306.52798     -3.578731       0              60.569046      2173.1073    
     56000   298.19384     -4.5798729      0              57.823801      2131.9141    
     57000   307.02742     -4.4539695      0              59.798327      2091.8372    
     58000   293.98699     -5.2484742      0              56.274823      2170.5884    
     59000   308.41066     -4.264609       0              60.27716       2211.6698    
     60000   297.25007     -6.504986       0              55.701183      1997.8005    
     61000   298.71206     -5.7335018      0              56.778621      1963.515     
     62000   300.73655     -4.5258035      0              58.409989      2075.7082    
     63000   295.90971     -4.8437547      0              57.081915      2158.2769    
     64000   311.85427     -4.6765247      0              60.585897      2096.8798    
     65000   295.34098     -3.8916646      0              57.914985      2185.5547    
     66000   301.50202     -4.3501389      0              58.745845      2091.9193    
     67000   297.82423     -3.3198374      0              59.006488      2107.567     
     68000   303.4791      -4.3997433      0              59.109988      2099.9898    
     69000   300.98104     -3.6355805      0              59.351376      2220.9445    
     70000   302.45807     -2.6713565      0              60.624702      2180.7022    
     71000   285.34175     -4.810678       0              54.90341       2044.485     
     72000   294.97884     -2.3679286      0              59.362935      2228.8083    
     73000   295.63101     -3.4702417      0              58.397103      2168.503     
     74000   297.26612     -6.8319341      0              55.377593      1966.5278    
     75000   307.3647      -4.2443773      0              60.078502      2192.7126    
     76000   304.28649     -5.0809914      0              58.597704      2035.18      
     77000   289.02332     -4.1207194      0              56.363819      2152.7731    
     78000   298.83548     -3.1882777      0              59.349673      2267.0112    
     79000   299.75648     -4.9445345      0              57.786157      2046.4985    
     80000   307.73442     -6.0334448      0              58.366806      2086.1452    
     81000   310.2109      -3.5062597      0              61.412251      2183.6028    
     82000   308.33332     -4.4268545      0              60.098731      2157.1411    
     83000   297.51104     -4.9428191      0              57.317963      2094.798     
     84000   313.86112     -4.7120868      0              60.970312      2144.9879    
     85000   309.75934     -5.1494472      0              59.674563      2211.5972    
     86000   298.9745      -4.0812624      0              58.485782      2039.8776    
     87000   298.38528     -5.1702028      0              57.273534      2147.9224    
     88000   302.1232      -3.8304693      0              59.395509      2095.6508    
     89000   302.53677     -6.4365129      0              56.876014      2040.2198    
     90000   299.44587     -3.6438912      0              59.021797      2125.3207    
     91000   302.11588     -4.7870678      0              58.437379      2066.2164    
     92000   304.0442      -1.7876448      0              61.840346      2178.6304    
     93000   298.89291     -4.0482944      0              58.501675      2155.6882    
     94000   307.31428     -4.2390124      0              60.073315      2011.3443    
     95000   294.06641     -5.036793       0              56.503124      2091.2421    
     96000   306.63666     -3.8420492      0              60.328471      2115.4062    
     97000   303.04831     -3.5168163      0              59.902762      2101.7339    
     98000   289.43999     -3.4364775      0              57.135259      2173.32      
     99000   290.95776     -2.9253446      0              57.964019      2166.8776    
    100000   299.33295     -4.6852922      0              57.956764      2166.9893    
    101000   300.65457     -4.5764221      0              58.342213      2068.1242    
    102000   295.15618     -5.5864432      0              56.181533      2082.3361    
    103000   300.28223     -5.2640429      0              57.576672      2107.8045    
    104000   298.49149     -5.2194         0              57.246563      2124.6182    
    105000   286.36693     -5.4390685      0              54.489562      2086.4338    
    106000   303.89992     -5.1530557      0              58.444742      2167.9481    
    107000   294.5758      -5.9689123      0              55.677607      2062.6012    
    108000   297.33226     -6.3270947      0              55.896273      2034.8669    
    109000   297.64329     -5.3026009      0              56.985857      2131.5592    
    110000   296.73849     -6.807229       0              55.29188       2008.939     
    111000   298.43984     -5.1883438      0              57.26681       2035.4585    
    112000   295.95945     -4.8569884      0              57.079088      2135.8858    
    113000   292.83301     -3.1931852      0              58.088615      2026.2694    
    114000   309.33622     -5.0535802      0              59.681884      2064.768     
    115000   302.33878     -5.3459907      0              57.925103      1992.344     
    116000   295.25715     -3.505452       0              58.283653      2203.3582    
    117000   304.80669     -4.6414715      0              59.146087      2069.2111    
    118000   302.4027      -5.796829       0              57.487641      2141.6496    
    119000   295.71087     -3.94496        0              57.939098      2154.5409    
    120000   301.92803     -4.2906292      0              58.894505      2113.6337    
    121000   293.07182     -4.3434701      0              56.988308      2012.1374    
    122000   291.84793     -4.5605248      0              56.515125      2059.4511    
    123000   305.78325     -3.9249111      0              60.067015      2093.1284    
    124000   298.76581     -3.5366482      0              58.986722      2084.0756    
    125000   293.17838     -4.3887502      0              56.965326      2063.1985    
    126000   300.14988     -5.9316183      0              56.8814        2135.1618    
    127000   297.5116      -3.3886653      0              58.872233      2153.3476    
    128000   302.08862     -5.1483979      0              58.070345      2139.38      
    129000   299.21296     -3.6452889      0              58.971659      2160.3409    
    130000   290.67933     -4.9213653      0              55.909731      2056.9634    
    131000   299.0176      -3.9875313      0              58.588533      2110.8779    
    132000   296.83631     -5.0497444      0              57.069836      2130.7751    
    133000   294.59251     -3.5006287      0              58.149387      2144.8634    
    134000   303.42956     -4.0364033      0              59.46296       2169.4829    
    135000   307.89959     -4.0806611      0              60.354155      2195.6474    
    136000   302.09678     -5.1755666      0              58.044883      2081.2105    
    137000   285.62606     -5.3752586      0              54.398329      2190.7       
    138000   314.07141     -5.6850184      0              60.041389      2061.3786    
    139000   295.76244     -4.5188128      0              57.376037      2163.0968    
    140000   297.59251     -4.9141676      0              57.363663      2105.4574    
    141000   295.13306     -4.1602444      0              57.602893      2092.6297    
    142000   299.38846     -4.1471693      0              58.506504      2093.5152    
    143000   295.32228     -3.9964194      0              57.806317      2170.3706    
    144000   296.49616     -4.3616592      0              57.686737      2145.6382    
    145000   295.72839     -4.4540994      0              57.433623      2177.0146    
    146000   309.3707      -5.3920453      0              59.350633      2187.0627    
    147000   296.50735     -3.3966324      0              58.654105      2090.7881    
    148000   304.02759     -4.9748494      0              58.649666      2138.576     
    149000   298.69086     -4.7634534      0              57.744232      2036.7743    
    150000   301.71128     -4.0881101      0              59.051666      2166.0439    
    151000   301.78178     -5.635001       0              57.519528      2064.1438    
    152000   298.50311     -4.0571827      0              58.411212      2123.801     
    153000   303.11868     -5.5653184      0              57.868987      2109.4741    
    154000   298.64627     -5.0655726      0              57.432781      2130.7802    
    155000   298.29603     -6.36559        0              56.059469      2046.5992    
    156000   297.37646     -5.036243       0              57.196376      2065.081     
    157000   303.12361     -3.8448763      0              59.590461      2044.5848    
    158000   294.6984      -3.8759583      0              57.796216      2038.6769    
    159000   304.14928     -5.8590735      0              57.790907      2098.2809    
    160000   286.58842     -5.2024372      0              54.772544      2116.124     
    161000   301.23793     -3.2316549      0              59.809061      2062.8867    
    162000   303.65093     -4.1352177      0              59.410473      2112.7774    
    163000   297.0846      -3.8528858      0              58.318654      2086.4914    
    164000   298.9451      -5.8821749      0              56.678717      2019.6791    
    165000   291.08557     -4.6876884      0              56.228422      2157.3715    
    166000   288.22742     -5.0006938      0              55.317286      2066.1226    
    167000   300.37005     -4.0916832      0              58.76741       2090.0629    
    168000   295.75161     -4.3865808      0              57.506002      2089.4233    
    169000   301.95747     -3.8920439      0              59.299253      2137.7014    
    170000   305.0736      -4.722279       0              59.121136      2102.585     
    171000   290.56866     -4.396111       0              56.411825      2004.4976    
    172000   304.62867     -4.3838442      0              59.36646       2194.1006    
    173000   299.57798     -5.0299657      0              57.663369      2052.9683    
    174000   290.20441     -4.2567972      0              56.474911      2125.8501    
    175000   302.40067     -3.708457       0              59.575589      2152.9551    
    176000   298.19262     -5.2258697      0              57.177549      2036.3026    
    177000   289.13189     -4.3529815      0              56.154278      2149.2358    
    178000   304.95126     -4.4181343      0              59.399678      2031.1915    
    179000   296.72689     -4.5481214      0              57.548559      2142.6384    
    180000   294.42952     -3.7508701      0              57.865037      2139.2575    
    181000   292.13097     -4.2130216      0              56.921862      2017.1395    
    182000   295.57743     -4.9403573      0              56.915774      2016.5043    
    183000   297.83599     -5.0922358      0              57.236549      2063.5237    
    184000   299.5698      -2.8262046      0              59.865419      2164.9479    
    185000   297.96307     -4.3238249      0              58.031555      2208.1259    
    186000   295.69534     -5.4691961      0              56.411611      2060.4434    
    187000   287.31058     -5.7228         0              54.403309      1991.1904    
    188000   306.33424     -4.727374       0              59.379859      2017.8118    
    189000   305.95824     -4.3470268      0              59.681519      2104.6388    
    190000   309.91144     -3.8456759      0              61.010165      2194.6499    
    191000   300.03493     -6.1044334      0              56.684528      2193.1982    
    192000   299.41881     -5.534173       0              57.125853      2114.8989    
    193000   296.53409     -4.252818       0              57.803517      2149.6865    
    194000   298.1988      -2.6302179      0              59.774494      2194.5751    
    195000   307.12444     -3.6507387      0              60.62186       2043.8785    
    196000   298.8149      -3.9876013      0              58.546042      2157.6013    
    197000   285.82223     -3.3793164      0              56.435324      2071.8995    
    198000   310.79638     -3.9580372      0              61.082997      2123.3956    
    199000   300.16946     -4.9467916      0              57.870324      2045.2152    
    200000   301.14073     -4.8380202      0              58.182355      2040.0935    
    201000   294.94197     -3.8946621      0              57.828486      2106.8992    
    202000   282.40021     -3.422329       0              55.676177      2119.3422    
    203000   303.30968     -5.1997938      0              58.274482      2110.52      
    204000   293.6367      -4.7955104      0              56.654481      2062.2302    
    205000   301.69278     -4.2529831      0              58.882921      2101.9351    
    206000   293.33254     -6.0334445      0              55.352893      2118.5152    
    207000   304.16568     -5.7183206      0              57.935093      1977.9651    
    208000   293.80747     -4.4177885      0              57.06794       2045.5189    
    209000   303.28834     -5.7982414      0              57.671569      1976.4167    
    210000   293.91625     -2.9070998      0              58.601393      2153.5372    
    211000   299.46024     -3.1796013      0              59.489094      2221.9185    
    212000   290.92992     -5.415322       0              55.468216      2106.2215    
    213000   309.68043     -3.9684476      0              60.83905       2154.1107    
    214000   301.96015     -4.1282621      0              59.063595      2181.3811    
    215000   308.7704      -4.0532624      0              60.563791      2142.6309    
    216000   304.42154     -4.8579448      0              58.849014      2058.3254    
    217000   300.35222     -4.3130317      0              58.542331      2205.6061    
    218000   301.84885     -5.0686575      0              58.099908      1990.519     
    219000   300.50324     -4.6732231      0              58.213744      2055.0637    
    220000   294.6641      -4.2979712      0              57.367026      2053.1658    
    221000   307.82322     -3.935739       0              60.483096      2063.4049    
    222000   293.80491     -5.1583378      0              56.326855      2069.5553    
    223000   288.9788      -5.0279943      0              55.447227      2037.173     
    224000   309.29794     -3.7107456      0              61.016707      2100.23      
    225000   301.93291     -3.2498818      0              59.936275      2221.3367    
    226000   294.99189     -4.5148042      0              57.218789      2119.9267    
    227000   301.00023     -4.291584       0              58.699389      1996.3242    
    228000   293.64362     -4.3920037      0              57.059436      2016.503     
    229000   308.81072     -4.5015408      0              60.12395       2091.1326    
    230000   302.53153     -3.3732679      0              59.938163      2134.9023    
    231000   307.20158     -4.5358852      0              59.752857      2128.2652    
    232000   297.16055     -4.0665712      0              58.120863      2157.7217    
    233000   300.65228     -4.8530626      0              58.065093      2009.8144    
    234000   301.53848     -5.7661337      0              57.337479      2076.3549    
    235000   303.04942     -3.7170717      0              59.702739      2047.2229    
    236000   302.29881     -3.6168102      0              59.64592       2060.4295    
    237000   304.27726     -3.4441942      0              60.232569      2093.6888    
    238000   302.58667     -4.2622079      0              59.060763      2099.1766    
    239000   294.41129     -5.2048443      0              56.407246      2135.7765    
    240000   305.69809     -3.5337668      0              60.440337      2174.3819    
    241000   299.01296     -4.9529285      0              57.622163      2102.32      
    242000   302.48722     -2.9425621      0              60.359596      2096.5952    
    243000   302.0147      -4.7847116      0              58.418562      2111.3611    
    244000   307.92524     -4.5287165      0              59.911469      2048.3789    
    245000   300.33235     -3.1331668      0              59.718038      2160.5217    
    246000   309.72686     -4.7823628      0              60.034851      2262.2194    
    247000   299.4482      -4.9355294      0              57.730646      2155.637     
    248000   296.01421     -5.5824514      0              56.365086      2059.538     
    249000   292.30773     -4.5972221      0              56.574652      2070.7814    
    250000   296.14799     -3.4856887      0              58.489845      2147.705     
    251000   294.12395     -4.6570618      0              56.894897      2022.4349    
    252000   307.85538     -4.2718492      0              60.153717      2093.1309    
    253000   298.08799     -4.570103       0              57.811419      2152.0206    
    254000   302.02726     -3.9088688      0              59.297034      2195.6715    
    255000   297.93097     -4.7535793      0              57.595083      2173.9382    
    256000   294.31557     -4.7271998      0              56.864859      2095.0525    
    257000   302.80644     -3.4585954      0              59.910367      2122.8256    
    258000   308.08821     -6.1953235      0              58.278967      2095.6781    
    259000   303.99538     -3.5086429      0              60.10913       2198.8391    
    260000   298.04044     -6.8219431      0              55.549627      1989.5856    
    261000   288.86841     -3.939096       0              56.513025      2082.4933    
    262000   304.61576     -4.0814251      0              59.666177      2081.3687    
    263000   298.34678     -4.2203891      0              58.215291      2116.1384    
    264000   311.0563      -3.2524942      0              61.842935      2141.369     
    265000   299.9873      -4.6256861      0              58.15331       2134.2538    
    266000   301.64163     -4.8480528      0              58.277147      2064.3701    
    267000   300.2168      -3.2461191      0              59.580903      2124.7416    
    268000   303.55022     -3.7289343      0              59.795681      2216.6013    
    269000   302.80788     -3.9889599      0              59.380304      2098.5367    
    270000   293.50667     -4.531904       0              56.890875      2006.5579    
    271000   303.90513     -3.4926064      0              60.106281      2144.9788    
    272000   290.03215     -3.8324222      0              56.863237      2072.1845    
    273000   291.92582     -4.081578       0              57.010373      2117.1951    
    274000   304.00017     -3.0984563      0              60.52032       2201.1941    
    275000   302.05117     -3.4455432      0              59.765361      2191.0344    
    276000   309.03797     -3.6323207      0              61.040727      2164.2548    
    277000   294.82845     -4.1764373      0              57.522954      2041.2772    
    278000   303.69634     -4.2678289      0              59.287364      2187.0022    
    279000   305.12559     -5.9287762      0              57.92552       2077.6801    
    280000   293.70601     -5.4496426      0              56.014853      2116.683     
    281000   297.03893     -5.6694544      0              56.492528      2000.5675    
    282000   300.23492     -5.9326425      0              56.898172      2107.7047    
    283000   298.4882      -5.14671        0              57.318565      2047.7657    
    284000   306.01169     -6.8527513      0              57.18698       2109.275     
    285000   300.47776     -4.2102821      0              58.671352      2107.338     
    286000   297.79107     -3.0421634      0              59.277221      2078.2722    
    287000   307.16393     -5.6352331      0              58.645631      1922.1692    
    288000   293.78648     -4.6540521      0              56.827283      2173.805     
    289000   306.57053     -5.2682114      0              58.888469      1985.9914    
    290000   283.2812      -4.0862464      0              55.196626      2128.7899    
    291000   295.32483     -5.4918941      0              56.311375      1971.3946    
    292000   298.82198     -2.8458255      0              59.6893        2063.2627    
    293000   313.56861     -3.5943535      0              62.026832      2121.7425    
    294000   292.57184     -3.7333017      0              57.493845      2134.375     
    295000   308.698       -2.8045427      0              61.797359      2174.9443    
    296000   306.30301     -5.3790981      0              58.721598      2003.4704    
    297000   309.38481     -4.660845       0              60.084788      2182.1295    
    298000   290.04866     -4.722276       0              55.976838      2074.1958    
    299000   299.91464     -4.7108724      0              58.052917      2078.7425    
    300000   295.25717     -4.0859849      0              57.703126      2027.0185    
    301000   304.53466     -5.0482282      0              58.682403      2034.4492    
    302000   300.76537     -4.9115722      0              58.03025       2099.0986    
    303000   301.37086     -6.9200242      0              56.148511      2148.426     
    304000   307.35146     -4.3698431      0              59.950265      2062.0736    
    305000   304.80293     -4.6912664      0              59.095507      2170.506     
    306000   300.93886     -4.307676       0              58.670455      2115.147     
    307000   307.93211     -5.1571329      0              59.284489      2052.0178    
    308000   299.45389     -3.66452        0              59.002847      2172.4543    
    309000   300.94481     -4.0009825      0              58.978392      2120.3311    
    310000   294.77571     -5.5627117      0              56.125641      2075.8096    
    311000   303.444       -4.9626763      0              58.53971       2096.2687    
    312000   295.91846     -4.4615473      0              57.465951      2111.1465    
    313000   301.49659     -5.6601016      0              57.434747      2079.6742    
    314000   315.99573     -5.125409       0              61.003705      2171.0277    
    315000   301.03811     -3.7670116      0              59.231888      2090.0808    
    316000   296.74665     -3.9143034      0              58.186514      2007.0508    
    317000   311.44065     -3.8246181      0              61.351243      2202.886     
    318000   306.33992     -5.1634554      0              58.944967      2135.2273    
    319000   307.2719      -3.7307433      0              60.572716      2162.6741    
    320000   306.88619     -4.1200984      0              60.102642      2156.4888    
    321000   294.74314     -5.2306732      0              56.450865      2108.1149    
    322000   297.91        -5.5915334      0              56.752739      2032.6538    
    323000   300.54134     -4.7019811      0              58.192958      2087.1103    
    324000   303.06753     -5.2137364      0              58.209864      2031.6491    
    325000   300.51266     -3.6010422      0              59.287895      2160.0797    
    326000   315.89939     -3.0087584      0              63.100195      2152.072     
    327000   299.66297     -4.7669231      0              57.944199      2217.4699    
    328000   300.13956     -3.1463631      0              59.664495      2152.1771    
    329000   294.53801     -3.1798934      0              58.458716      2105.6371    
    330000   300.1683      -5.8706245      0              56.946249      2035.1791    
    331000   281.55242     -6.2014059      0              52.719681      1964.5748    
    332000   303.81731     -5.546552       0              58.033956      2117.4904    
    333000   299.34626     -4.5643345      0              58.080508      2078.676     
    334000   311.67927     -5.322466       0              59.903333      2084.8467    
    335000   292.17655     -3.1799824      0              57.96444       2169.0261    
    336000   301.90975     -6.1140493      0              57.06726       2074.5511    
    337000   297.08607     -5.6595722      0              56.512275      1909.925     
    338000   297.77058     -7.1636501      0              55.151447      1996.8466    
    339000   297.79446     -5.5644997      0              56.755595      2088.8278    
    340000   308.36014     -4.5514217      0              59.979775      2102.0511    
    341000   310.9377      -5.0681135      0              60.002495      2111.0548    
    342000   295.86214     -4.0193673      0              57.896346      2111.2127    
    343000   306.48847     -6.68665        0              57.452859      2177.8433    
    344000   298.89279     -4.6289813      0              57.920962      2042.8991    
    345000   290.60954     -4.7004168      0              56.116073      2155.7751    
    346000   307.39754     -3.3670712      0              60.96268       2180.4664    
    347000   296.25162     -4.7421818      0              57.255039      2005.6419    
    348000   292.95044     -3.2914391      0              58.014936      2056.7136    
    349000   300.69863     -4.6774397      0              58.250416      2037.481     
    350000   293.26185     -5.445467       0              55.926077      2078.1187    
    351000   301.22149     -3.9369651      0              59.10031       2187.1384    
    352000   304.31147     -5.2869841      0              58.396939      2073.216     
    353000   294.13248     -5.1408077      0              56.412936      2130.1626    
    354000   305.77912     -2.302284       0              61.688778      2127.6466    
    355000   296.82623     -4.2444763      0              57.872995      2079.9032    
    356000   302.17959     -4.2907129      0              58.947068      2129.6623    
    357000   305.78103     -2.6670954      0              61.324365      2177.6084    
    358000   298.89695     -5.9298913      0              56.620924      2080.2812    
    359000   297.35651     -4.4535729      0              57.774871      2144.4373    
    360000   288.07068     -5.1919138      0              55.093263      1979.8248    
    361000   294.65484     -5.066497       0              56.596562      2020.6917    
    362000   305.03576     -5.8268151      0              58.008682      2080.7666    
    363000   295.96318     -4.2861684      0              57.650691      2073.1617    
    364000   290.38201     -4.5993095      0              56.169565      2190.5387    
    365000   292.88287     -4.2887818      0              57.003452      1988.3599    
    366000   299.30284     -4.4264085      0              58.209348      2126.178     
    367000   294.93053     -4.7936042      0              56.927149      1997.4239    
    368000   302.27839     -4.8123683      0              58.446088      2077.1361    
    369000   303.4404      -5.2716318      0              58.23          2055.9131    
    370000   297.3112      -5.4049239      0              56.814037      1950.9626    
    371000   304.67112     -5.4038096      0              58.355379      2056.9944    
    372000   307.53834     -6.3358055      0              58.023412      2000.0142    
    373000   292.5826      -5.7366006      0              55.492796      2070.1543    
    374000   299.43326     -4.95478        0              57.70827       2023.665     
    375000   300.24814     -4.4323248      0              58.401256      2061.0432    
    376000   304.7167      -5.1787963      0              58.58993       2182.4346    
    377000   312.50352     -2.9176206      0              62.480671      2121.8667    
    378000   290.15172     -4.0513233      0              56.669358      2147.2288    
    379000   301.72617     -3.8314443      0              59.311447      1998.6409    
    380000   287.01332     -5.4497555      0              54.614147      2068.7438    
    381000   302.96845     -6.1272319      0              57.275636      1927.1145    
    382000   309.15405     -5.6085552      0              59.088784      2111.2797    
    383000   297.48459     -4.2894191      0              57.965828      2210.7508    
    384000   311.2213      -6.1665344      0              58.963424      2118.2485    
    385000   307.58108     -5.0003311      0              59.36783       2064.6547    
    386000   298.20236     -3.2478027      0              59.157654      2097.64      
    387000   298.3031      -4.152856       0              58.273682      2109.7458    
    388000   287.99409     -5.4286499      0              54.8405        1968.4537    
    389000   309.58266     -5.6385366      0              59.148501      2019.5892    
    390000   304.53922     -4.2925173      0              59.439068      2171.8122    
    391000   296.7138      -6.4089133      0              55.68503       2128.7874    
    392000   306.45393     -4.0462007      0              60.086079      2162.0385    
    393000   298.68566     -3.9436697      0              58.562929      2094.9106    
    394000   299.49618     -5.7648566      0              56.91136       2052.3932    
    395000   300.35603     -4.3524777      0              58.503681      2187.3438    
    396000   300.46087     -4.6877344      0              58.190366      2136.0953    
    397000   296.62661     -5.1548804      0              56.920816      2005.7188    
    398000   300.5029      -3.1721061      0              59.714789      2148.0843    
    399000   308.62671     -4.2564157      0              60.330567      2101.4597    
    400000   300.1628      -3.4724467      0              59.343275      2137.5674    
    401000   294.89813     -5.4227964      0              56.291177      2009.0273    
    402000   297.04415     -4.8394078      0              57.323667      2079.6513    
    403000   302.16219     -5.9324729      0              57.301666      2034.0815    
    404000   299.70664     -5.2605504      0              57.459711      1960.1525    
    405000   295.92909     -5.3304818      0              56.599242      2105.0922    
    406000   294.4439      -3.3420598      0              58.276856      2041.8544    
    407000   293.82142     -3.5318562      0              57.956792      2093.0838    
    408000   302.21631     -4.4511789      0              58.794285      2067.8165    
    409000   289.69823     -2.8784718      0              57.747306      2135.5311    
    410000   297.68728     -5.7016111      0              56.596054      2042.649     
    411000   300.92559     -4.4381973      0              58.537156      2136.3593    
    412000   304.83947     -5.0944756      0              58.699944      2019.343     
    413000   298.86824     -4.0926267      0              58.45218       2038.6869    
    414000   290.70376     -5.0981479      0              55.73806       2085.1304    
    415000   297.07897     -7.0914871      0              55.078874      1981.495     
    416000   303.43401     -5.109016       0              58.391278      2180.019     
    417000   308.8799      -5.6325133      0              59.007455      2149.7154    
    418000   300.13948     -4.378909       0              58.431932      1978.3004    
    419000   314.83662     -5.0715646      0              60.814979      2151.9658    
    420000   303.97133     -4.5886344      0              59.024106      2088.4852    
    421000   300.14347     -3.5990726      0              59.212603      2061.2845    
    422000   320.80117     -5.1385991      0              61.996159      2111.0195    
    423000   297.42439     -4.4707396      0              57.77191       2123.5358    
    424000   298.82034     -3.9029545      0              58.631827      2144.9559    
    425000   314.21835     -4.4165449      0              61.340612      2138.6858    
    426000   305.03218     -4.2863631      0              59.548385      2072.5371    
    427000   308.30027     -4.7294649      0              59.789203      2139.1964    
    428000   302.37598     -3.8017735      0              59.477106      2128.1533    
    429000   304.21655     -3.1539117      0              60.510147      2095.264     
    430000   297.63206     -3.6435749      0              58.642535      2215.5524    
    431000   296.8652      -3.1036248      0              59.022001      2210.3499    
    432000   291.81733     -4.444322       0              56.624926      2159.7339    
    433000   295.21538     -5.1388997      0              56.641464      2124.1921    
    434000   296.64545     -4.7619814      0              57.317657      2140.9239    
    435000   303.11707     -4.4532307      0              58.980737      2198.3116    
    436000   302.75033     -3.1073206      0              60.249899      2071.3227    
    437000   307.01538     -3.0439677      0              61.205808      2125.7579    
    438000   307.6142      -4.545427       0              59.829665      2093.4226    
    439000   305.35539     -4.6698995      0              59.232487      2071.9653    
    440000   295.75761     -2.9153702      0              58.978468      2131.9049    
    441000   304.4186      -4.8765088      0              58.829833      2157.2962    
    442000   301.05031     -4.1742977      0              58.827156      2149.6945    
    443000   308.72269     -3.8901344      0              60.716933      2151.0509    
    444000   285.98806     -5.2983947      0              54.55095       1972.0584    
    445000   304.4733      -5.7328875      0              57.984902      2101.9963    
    446000   293.59584     -4.6672127      0              56.774228      2148.3077    
    447000   300.56336     -4.0510136      0              58.848535      1979.8416    
    448000   303.95929     -2.4953396      0              61.114882      2131.9984    
    449000   311.40804     -4.1882837      0              60.980755      2206.9896    
    450000   292.01409     -5.5999245      0              55.510499      2031.0759    
    451000   291.20279     -5.9534911      0              54.987149      2018.4126    
    452000   301.00998     -5.087556       0              57.905458      2023.0553    
    453000   292.7468      -5.7279527      0              55.535806      2096.933     
    454000   309.94071     -4.5094389      0              60.352527      2088.1381    
    455000   296.16644     -3.9363176      0              58.043077      2086.8812    
    456000   302.75374     -4.7720758      0              58.585858      2110.4246    
    457000   301.89515     -4.9208495      0              58.257405      2122.5304    
    458000   298.24804     -4.2162917      0              58.198724      2122.2483    
    459000   301.24691     -3.948962       0              59.093633      2116.565     
    460000   295.30837     -3.584813       0              58.215011      2118.1268    
    461000   296.16704     -6.4378334      0              55.541688      2001.8488    
    462000   289.85959     -5.5784966      0              55.08105       1970.0168    
    463000   300.83761     -3.898911       0              59.05803       2162.6543    
    464000   306.90643     -5.5332762      0              58.693701      2039.2988    
    465000   296.51476     -3.9684516      0              58.083838      2078.2685    
    466000   291.52194     -4.7193016      0              56.288128      2054.6411    
    467000   298.73848     -4.8491227      0              57.668528      2029.8955    
    468000   303.32135     -3.9847611      0              59.491958      2029.8097    
    469000   301.03732     -5.5505679      0              57.448167      1997.8625    
    470000   299.99072     -4.5825834      0              58.197127      2017.6364    
    471000   289.39534     -4.3351345      0              56.227257      2173.6025    
    472000   298.06673     -5.3295455      0              57.047528      2177.3206    
    473000   311.14481     -4.9202554      0              60.193695      2135.8503    
    474000   305.96603     -4.5275321      0              59.502644      2052.4393    
    475000   297.44326     -4.894187       0              57.35241       2140.2783    
    476000   299.12758     -4.2301151      0              58.368964      1975.0665    
    477000   294.48916     -5.9117556      0              55.716631      2106.1136    
    478000   299.41253     -4.4499943      0              58.208717      2135.0125    
    479000   294.29549     -5.6432347      0              55.944622      1985.0605    
    480000   298.52623     -3.9290757      0              58.544158      2014.7809    
    481000   301.34431     -5.0729219      0              57.990057      2056.5384    
    482000   303.00269     -2.8991336      0              60.510899      2236.3334    
    483000   297.23193     -3.5808016      0              58.621571      2213.2022    
    484000   309.5381      -3.5928801      0              61.184831      2174.9621    
    485000   307.05549     -4.6667267      0              59.591444      2002.5835    
    486000   294.6518      -4.9990432      0              56.663381      2144.8043    
    487000   301.71793     -2.573045       0              60.568123      2139.6911    
    488000   302.95427     -6.4002315      0              56.999668      1928.6748    
    489000   301.42971     -5.9439919      0              57.13686       1969.0526    
    490000   296.90816     -4.2127959      0              57.921821      2068.018     
    491000   298.89847     -3.5512295      0              58.999904      2170.8678    
    492000   312.15234     -4.5894902      0              60.73531       2169.077     
    493000   305.48559     -4.5661017      0              59.363532      2064.613     
    494000   301.24518     -4.7599409      0              58.282293      2085.8299    
    495000   294.36377     -4.7351677      0              56.866979      2122.1172    
    496000   297.88037     -3.4817789      0              58.856294      2092.1723    
    497000   294.28507     -5.3958682      0              56.189809      2033.1086    
    498000   301.74745     -5.3746502      0              57.772694      2035.6355    
    499000   294.38211     -5.9461292      0              55.659855      2024.2289    
    500000   300.65133     -5.1106613      0              57.807296      2105.8332    
    501000   295.19109     -3.5749365      0              58.200345      2253.0196    
    502000   293.73138     -4.0241918      0              57.445613      2081.0387    
    503000   307.20912     -4.2675813      0              60.022739      2157.6619    
    504000   297.82364     -4.5874115      0              57.738789      2072.4597    
    505000   288.92329     -4.6450094      0              55.818596      2105.5343    
    506000   300.73843     -5.2965636      0              57.639623      2153.3046    
    507000   303.09589     -5.2688013      0              58.160734      2048.6291    
    508000   307.56014     -5.0851607      0              59.278618      2151.3964    
    509000   313.456       -3.5354515      0              62.062167      2198.6413    
    510000   302.04964     -5.5878768      0              57.622708      2105.6358    
    511000   303.26719     -3.3524457      0              60.112938      2183.8299    
    512000   303.49772     -4.62948        0              58.884147      2155.1295    
    513000   301.69079     -3.7295659      0              59.405921      2165.0582    
    514000   301.42645     -4.9084879      0              58.17168       2240.6403    
    515000   303.22434     -5.1702299      0              58.286188      2059.0847    
    516000   298.82271     -4.8386853      0              57.696594      2029.8424    
    517000   304.7008      -4.0363272      0              59.729072      2093.3096    
    518000   302.49771     -2.9800406      0              60.324313      2201.3149    
    519000   295.64264     -4.8637688      0              57.00601       2133.34      
    520000   300.58229     -5.7301275      0              57.173382      2121.0952    
    521000   302.79629     -5.6628034      0              57.704035      2053.5452    
    522000   303.33241     -3.6100532      0              59.86898       2090.5937    
    523000   299.5653      -3.7256641      0              58.965019      2107.5814    
    524000   297.50887     -3.6615794      0              58.598749      2112.196     
    525000   307.89737     -5.43066        0              59.003692      2123.8562    
    526000   293.17605     -4.6647019      0              56.688888      2119.4781    
    527000   300.35635     -4.333584       0              58.522643      2116.3059    
    528000   298.74111     -4.3951287      0              58.123074      2090.8208    
    529000   300.87983     -2.8094855      0              60.156291      2249.3637    
    530000   301.79623     -4.9901706      0              58.167382      2163.4031    
    531000   301.40383     -4.1846439      0              58.890791      2218.3964    
    532000   304.72317     -5.2428123      0              58.527268      2066.0323    
    533000   314.20928     -3.8622368      0              61.893022      2123.1727    
    534000   295.85812     -5.5679644      0              56.346908      2080.5947    
    535000   298.93092     -5.9643503      0              56.593574      2079.0256    
    536000   302.17723     -2.2410274      0              60.99626       2166.5144    
    537000   297.28241     -5.1200334      0              57.092904      2087.4363    
    538000   294.38902     -4.5587584      0              57.048671      2065.1028    
    539000   297.21999     -5.6133978      0              56.586476      2074.2597    
    540000   305.20965     -4.4311098      0              59.440777      2145.7688    
    541000   298.28715     -3.8829081      0              58.540291      2096.0359    
    542000   301.81427     -5.0567395      0              58.104589      2088.8435    
    543000   301.18534     -5.7852399      0              57.244471      1946.2396    
    544000   303.28612     -3.2462358      0              60.22311       2219.7629    
    545000   297.79066     -5.5013435      0              56.817955      2131.1012    
    546000   305.11807     -4.8666697      0              58.986052      1979.0206    
    547000   296.58168     -4.0995064      0              57.966787      2048.0267    
    548000   295.32721     -4.8825205      0              56.921247      2109.0992    
    549000   299.90731     -3.6478377      0              59.114418      2122.1988    
    550000   304.05229     -2.9897554      0              60.639928      2098.954     
    551000   303.117       -5.9775995      0              57.456355      2000.6027    
    552000   294.38412     -5.0058127      0              56.600592      2073.1784    
    553000   293.83363     -4.5412982      0              56.949904      2167.0113    
    554000   297.57347     -4.8197558      0              57.454091      2066.7613    
    555000   305.39826     -5.9691605      0              57.942198      2100.745     
    556000   295.66496     -3.5601621      0              58.314287      2062.9409    
    557000   298.38903     -4.2094061      0              58.235114      2122.7801    
    558000   298.48028     -5.7703985      0              56.69322       1958.944     
    559000   296.11605     -4.1690345      0              57.799816      2080.7741    
    560000   297.8137      -3.809502       0              58.514618      1996.7359    
    561000   283.20243     -5.281581       0              53.984808      2074.194     
    562000   299.15787     -5.3103124      0              57.295107      2023.0173    
    563000   300.04435     -4.9028108      0              57.888124      2104.9493    
    564000   303.97917     -4.0931604      0              59.521221      2181.1569    
    565000   302.98964     -3.5435272      0              59.863773      2091.3877    
    566000   303.50405     -5.1801461      0              58.334807      1986.1397    
    567000   300.06242     -4.4445737      0              58.350142      2085.8622    
    568000   296.84487     -5.2484398      0              56.872932      2061.3942    
    569000   288.15293     -4.730815       0              55.571576      2074.2299    
    570000   294.47798     -6.0274318      0              55.598615      2085.9762    
    571000   296.09763     -4.7897955      0              57.175199      2095.939     
    572000   306.20268     -4.8094749      0              59.270227      2148.9946    
    573000   299.75905     -2.7619181      0              59.969309      2051.8008    
    574000   294.07949     -3.4480281      0              58.094627      2064.8368    
    575000   306.09849     -5.8526542      0              58.205242      1960.5086    
    576000   299.62798     -3.8182713      0              58.885527      2105.7653    
    577000   296.92354     -3.7280631      0              58.409771      2123.7617    
    578000   300.77606     -4.0559464      0              58.888114      2274.6063    
    579000   302.47766     -4.8956832      0              58.404475      2106.7174    
    580000   305.24219     -4.7976601      0              59.081037      2201.6895    
    581000   296.78036     -4.3154972      0              57.792375      2165.2099    
    582000   293.74466     -4.5594445      0              56.913139      2127.5919    
    583000   301.34579     -5.0289719      0              58.034317      2070.9954    
    584000   311.79428     -4.4446925      0              60.805174      2193.4701    
    585000   292.23467     -5.9738981      0              55.182688      2149.1248    
    586000   310.99599     -3.3150746      0              61.767732      2118.3739    
    587000   290.28461     -4.399561       0              56.348931      2058.6142    
    588000   296.43679     -6.5282774      0              55.507694      1981.7245    
    589000   296.82662     -4.0498495      0              58.067704      2178.9694    
    590000   308.03704     -3.5770486      0              60.886532      2085.3984    
    591000   298.13865     -2.9265549      0              59.465569      2183.1382    
    592000   292.64672     -4.4146037      0              56.828212      2131.6397    
    593000   299.57604     -4.9520677      0              57.740861      2088.2041    
    594000   293.67378     -3.840966       0              57.616785      2140.5423    
    595000   301.46082     -4.29607        0              58.791292      2143.6495    
    596000   314.91786     -3.2495529      0              62.653992      2178.9911    
    597000   294.0109      -5.5493869      0              55.978913      2054.3279    
    598000   292.71411     -4.4320917      0              56.824827      2132.7504    
    599000   310.59388     -4.5699309      0              60.428725      2133.8883    
    600000   302.99693     -5.1770082      0              58.231817      2012.2245    
    601000   299.06077     -5.5652037      0              57.019895      2069.5681    
    602000   298.31808     -5.1136213      0              57.316053      2071.3755    
    603000   292.73897     -4.8753955      0              56.386725      2065.7547    
    604000   306.82864     -4.9242356      0              59.286461      2053.1462    
    605000   300.17184     -3.4295032      0              59.38811       2160.6358    
    606000   291.08653     -3.0727849      0              57.843526      2095.0249    
    607000   311.14833     -5.8981568      0              59.216531      2135.6273    
    608000   298.47269     -4.6202588      0              57.841771      2125.4542    
    609000   310.22983     -4.670593       0              60.251878      2077.2675    
    610000   299.30163     -4.8836928      0              57.75181       2024.6334    
    611000   299.35115     -5.2582906      0              57.387576      2074.1223    
    612000   306.61322     -4.2906772      0              59.874938      2124.2863    
    613000   295.95527     -4.8102975      0              57.124905      2078.3466    
    614000   305.19743     -4.2862417      0              59.583088      2016.2105    
    615000   295.85205     -3.9276403      0              57.985963      2164.8598    
    616000   294.32071     -5.0202186      0              56.572916      2031.394     
    617000   299.25437     -6.179919       0              56.445693      2030.0349    
    618000   301.63245     -5.4200535      0              57.703226      2092.9659    
    619000   298.83259     -5.4651409      0              57.072205      2034.2905    
    620000   310.07691     -4.6487661      0              60.241703      2195.0045    
    621000   295.53376     -5.590922       0              56.256071      2099.5224    
    622000   296.149       -4.9817987      0              56.993947      2053.4598    
    623000   299.64613     -5.9304685      0              56.777128      2082.5084    
    624000   307.27556     -6.6319529      0              57.672273      2123.8564    
    625000   301.19057     -4.8897283      0              58.141077      2131.8727    
    626000   308.92611     -5.0817379      0              59.567901      2083.5541    
    627000   295.89752     -5.2049502      0              56.718168      2184.8151    
    628000   299.20823     -3.955531       0              58.660426      2159.8513    
    629000   305.89441     -4.0760857      0              59.939103      2119.8662    
    630000   306.58404     -3.1480887      0              61.01142       2134.0967    
    631000   305.84328     -4.7173432      0              59.287145      2006.7299    
    632000   294.95288     -4.3048672      0              57.420562      2109.4834    
    633000   304.53601     -2.7954018      0              60.935511      2156.9668    
    634000   306.42226     -5.1323213      0              58.993331      2065.8074    
    635000   304.77633     -3.1434461      0              60.637759      2236.8825    
    636000   301.40877     -5.1803205      0              57.896149      2081.3088    
    637000   285.76745     -4.9910399      0              54.812135      2006.1667    
    638000   294.3169      -5.5902257      0              56.002112      2048.7464    
    639000   302.78567     -5.3562674      0              58.008349      2088.6605    
    640000   302.27528     -3.8636141      0              59.394191      2084.1561    
    641000   302.54485     -4.1555433      0              59.158676      2193.8064    
    642000   295.4618      -4.4607714      0              57.371161      2245.8019    
    643000   308.79736     -4.3009987      0              60.321696      2240.96      
    644000   294.85039     -3.5570285      0              58.146953      2083.0338    
    645000   297.03104     -5.0699733      0              57.090359      2066.5301    
    646000   297.8858      -4.9436678      0              57.395542      2017.1306    
    647000   291.96249     -3.1737052      0              57.92592       2142.5647    
    648000   290.02071     -5.2117957      0              55.481469      2011.5326    
    649000   295.18856     -4.4530354      0              57.321716      2140.4119    
    650000   299.21708     -5.7511921      0              56.866617      2062.9255    
    651000   302.52884     -4.3106397      0              59.000229      2206.9697    
    652000   304.79082     -3.7086414      0              60.075597      2101.2604    
    653000   302.6525      -4.2273758      0              59.109372      2133.5474    
    654000   307.3725      -5.044811       0              59.2797        2139.0076    
    655000   301.02609     -5.8104567      0              57.185928      2020.7535    
    656000   298.86431     -3.0634482      0              59.480536      2179.9485    
    657000   289.61854     -4.5636672      0              56.045436      2167.5436    
    658000   301.4825      -4.3759765      0              58.715923      2130.6399    
    659000   306.57044     -4.7497995      0              59.406863      2127.2275    
    660000   307.67119     -4.1797237      0              60.207295      2094.6071    
    661000   297.32074     -5.900091       0              56.320867      2047.6675    
    662000   305.91582     -6.5835654      0              57.436103      2062.2556    
    663000   302.70927     -3.4334839      0              59.915144      2106.0653    
    664000   303.63535     -5.1973242      0              58.345106      2090.3778    
    665000   304.36843     -4.4764069      0              59.219436      2129.6621    
    666000   290.81812     -2.5158704      0              58.344271      2114.0418    
    667000   289.06867     -4.993475       0              55.500554      2025.4341    
    668000   310.85585     -3.0630227      0              61.990456      2122.9138    
    669000   306.43453     -4.4708378      0              59.657383      2103.6719    
    670000   293.70109     -2.7033631      0              58.760103      2220.2422    
    671000   307.46714     -2.7745055      0              61.569811      2176.114     
    672000   303.44184     -3.6545876      0              59.847346      2017.5853    
    673000   301.01631     -6.8876169      0              56.106721      1970.5133    
    674000   293.80995     -4.7115921      0              56.774656      2090.015     
    675000   306.83852     -4.2212283      0              59.991536      2202.8711    
    676000   300.61044     -5.8914757      0              57.017924      2046.5583    
    677000   300.26052     -5.1879011      0              57.648271      2059.7136    
    678000   307.8402      -4.86477        0              59.557618      2113.4621    
    679000   285.37123     -4.9390681      0              54.781189      1993.1734    
    680000   296.82551     -4.3174801      0              57.79984       2054.7727    
    681000   298.15026     -5.4058602      0              56.988694      2006.075     
    682000   297.20662     -4.0202423      0              58.176833      2163.9669    
    683000   299.73078     -4.7342471      0              57.991064      2025.8271    
    684000   298.69728     -4.70915        0              57.799878      2098.467     
    685000   294.20822     -4.985709       0              56.583885      2079.3375    
    686000   298.98135     -3.1269437      0              59.441535      2146.8581    
    687000   291.84485     -2.2414401      0              58.833565      2131.7313    
    688000   285.10375     -5.3652029      0              54.299078      2091.8868    
    689000   297.43563     -5.2182121      0              57.026789      2127.3865    
    690000   297.3189      -5.5609085      0              56.659663      2159.6686    
    691000   291.19944     -3.415503       0              57.524438      2121.1706    
    692000   308.34852     -5.3948841      0              59.133881      2073.8929    
    693000   307.62095     -4.278931       0              60.097574      2048.0525    
    694000   295.15458     -5.1215561      0              56.646084      1966.2733    
    695000   305.68599     -5.8073957      0              58.164176      2133.7678    
    696000   299.12925     -5.8036249      0              56.795804      1997.9863    
    697000   296.96683     -3.410976       0              58.735918      2197.4319    
    698000   303.71872     -4.825441       0              58.734437      2115.1759    
    699000   301.64948     -5.787652       0              57.33919       2078.4244    
    700000   299.26343     -6.098541       0              56.528967      2003.6174    
    701000   303.7036      -4.584087       0              58.972626      1985.8434    
    702000   308.45763     -3.6292461      0              60.922353      2229.4258    
    703000   291.88707     -4.2680982      0              56.815745      2134.83      
    704000   303.05678     -4.6839809      0              58.73737       2199.0396    
    705000   290.14237     -5.3166101      0              55.402114      2107.2637    
    706000   292.87285     -3.9974634      0              57.292675      2083.7738    
    707000   297.67234     -3.153189       0              59.141348      2182.464     
    708000   300.9194      -3.0568197      0              59.917238      2283.7082    
    709000   289.42551     -5.8098441      0              54.758862      2077.1168    
    710000   298.46449     -4.8747301      0              57.585582      2096.3744    
    711000   312.87959     -3.0385962      0              62.438396      2175.4505    
    712000   289.28635     -4.6768566      0              55.862727      2120.0723    
    713000   293.44113     -4.7698585      0              56.639205      2083.3509    
    714000   300.30635     -4.656489       0              58.189273      2012.7245    
    715000   289.87609     -5.5718107      0              55.09119       2123.6216    
    716000   312.61441     -3.9838613      0              61.437637      2082.2666    
    717000   297.92179     -5.3393395      0              57.007402      1975.8274    
    718000   304.19569     -5.6038762      0              58.055817      2077.4587    
    719000   291.33314     -5.6353719      0              55.332547      1947.8873    
    720000   300.76993     -3.7604849      0              59.182292      2125.4473    
    721000   303.2589      -4.6831516      0              58.780498      2141.0261    
    722000   314.05789     -4.003009       0              61.720568      2080.184     
    723000   288.54033     -4.3623491      0              56.021113      2139.917     
    724000   312.58841     -3.8864265      0              61.52963       2155.5291    
    725000   311.81536     -5.4188182      0              59.83546       2082.784     
    726000   300.67546     -5.269994       0              57.653012      2094.9495    
    727000   294.58473     -4.3387804      0              57.309606      2145.8025    
    728000   301.99619     -5.1811545      0              58.018246      2083.1585    
    729000   293.64586     -2.5517795      0              58.900129      2240.8155    
    730000   302.26824     -4.8612634      0              58.39507       2066.4553    
    731000   297.65131     -3.1797625      0              59.110375      2125.8557    
    732000   301.86848     -4.0981398      0              59.074533      2128.1764    
    733000   297.84113     -5.825071       0              56.50479       2032.3664    
    734000   303.25867     -5.0284376      0              58.435164      2058.35      
    735000   305.94008     -3.9977961      0              60.026951      2035.8364    
    736000   287.62049     -5.6299996      0              54.560967      1961.6252    
    737000   299.90959     -4.4454301      0              58.317302      2063.3988    
    738000   302.09087     -4.6820003      0              58.537213      2184.3189    
    739000   297.00382     -5.1152472      0              57.039388      1991.7753    
    740000   306.50319     -4.8625528      0              59.280036      2055.2742    
    741000   303.97909     -5.4027101      0              58.211655      2097.211     
    742000   298.24023     -5.6653393      0              56.748043      2076.2646    
    743000   290.63342     -5.1334348      0              55.688054      2087.1751    
    744000   303.19012     -6.1468658      0              57.302391      2067.8854    
    745000   298.26754     -4.6219715      0              57.797124      2070.7872    
    746000   297.75263     -6.8800692      0              55.43127       2041.9082    
    747000   298.15693     -4.6200863      0              57.775864      2058.2911    
    748000   303.8719      -3.7899131      0              59.802021      2137.7023    
    749000   286.87829     -5.4336562      0              54.601987      2067.1827    
    750000   290.9219      -4.8696116      0              56.012247      1979.8567    
    751000   303.82222     -4.0606588      0              59.520877      2073.0326    
    752000   297.87317     -5.3077052      0              57.028861      1968.9284    
    753000   302.638       -2.7375833      0              60.596129      2125.7776    
    754000   300.49037     -3.5277737      0              59.3565        2044.6828    
    755000   304.75618     -5.266075       0              58.510914      2037.3292    
    756000   299.14016     -4.7337158      0              57.867996      2042.6384    
    757000   295.07163     -3.6475966      0              58.102686      2097.8657    
    758000   295.01955     -5.7170464      0              56.022336      2096.4802    
    759000   300.60653     -4.434132       0              58.47445       2088.4282    
    760000   307.88391     -3.5004125      0              60.931124      2137.6155    
    761000   299.09233     -4.8561481      0              57.735554      2022.0119    
    762000   311.78984     -4.7855018      0              60.463436      2081.7765    
    763000   301.70155     -3.3025304      0              59.835209      2101.6866    
    764000   296.18757     -4.7612041      0              57.222613      2152.2087    
    765000   296.8936      -5.4443441      0              56.687225      2106.1978    
    766000   290.49173     -4.9202461      0              55.87159       2083.4811    
    767000   291.62066     -3.9670181      0              57.061072      2162.1391    
    768000   305.83006     -3.7410287      0              60.260694      2133.3478    
    769000   288.5101      -5.0171966      0              55.359939      2068.2247    
    770000   298.43091     -4.3017534      0              58.151532      2121.0521    
    771000   299.50414     -5.2137453      0              57.464138      2177.4161    
    772000   309.86618     -4.7039099      0              60.142459      2107.3733    
    773000   296.28145     -3.7016963      0              58.301768      2136.534     
    774000   302.09711     -4.5021383      0              58.718381      2042.9032    
    775000   308.50143     -3.2035052      0              61.357259      2122.6838    
    776000   297.85669     -4.470287       0              57.86283       2089.6157    
    777000   294.52841     -4.4872733      0              57.149327      2040.822     
    778000   289.76127     -5.9069758      0              54.731996      2062.577     
    779000   288.9665      -5.9306801      0              54.541967      2017.6193    
    780000   310.89605     -2.1015249      0              62.960368      2229.2471    
    781000   299.10523     -4.0694295      0              58.524971      2105.4819    
    782000   292.14702     -5.6592162      0              55.479026      1981.434     
    783000   301.4067      -5.206898       0              57.869137      2049.8368    
    784000   307.72307     -4.6842814      0              59.713595      2063.3465    
    785000   301.32726     -3.5023834      0              59.557028      2119.7661    
    786000   294.57331     -5.422422       0              56.223575      2055.0444    
    787000   300.02054     -4.7622472      0              58.023704      2077.6091    
    788000   310.29448     -4.1949506      0              60.741051      2154.2324    
    789000   297.77524     -5.8448038      0              56.471269      2095.1522    
    790000   284.93975     -4.6192865      0              55.010674      2164.11      
    791000   288.528       -4.3161856      0              56.064695      2119.0692    
    792000   301.98552     -4.8879409      0              58.309226      1939.5236    
    793000   297.86235     -5.2138812      0              57.12042       2059.7292    
    794000   299.43266     -6.0608723      0              56.602052      2117.9007    
    795000   305.39041     -6.3145966      0              57.59512       2024.1268    
    796000   308.47785     -5.7207377      0              58.835093      1973.4293    
    797000   296.11548     -6.1954487      0              55.773282      2024.2076    
    798000   301.99217     -5.1913246      0              58.007234      2009.1518    
    799000   293.51624     -3.1617408      0              58.263041      2149.0727    
    800000   305.58513     -3.243162       0              60.707302      2077.253     
    801000   293.53836     -4.9835819      0              56.44583       2097.5904    
    802000   291.44836     -4.8999802      0              56.092052      1872.8022    
    803000   295.22585     -4.8596631      0              56.922893      2076.1512    
    804000   307.51913     -5.7366409      0              58.618555      2072.0239    
    805000   300.61548     -4.1578365      0              58.752618      2110.9072    
    806000   298.13938     -5.5221256      0              56.87015       2053.1959    
    807000   302.28664     -5.1062697      0              58.153913      2111.5931    
    808000   288.6576      -4.7931458      0              55.614857      2021.4281    
    809000   304.52575     -4.3469059      0              59.38186       1981.7939    
    810000   299.59936     -4.2494356      0              58.448375      2072.7408    
    811000   307.87504     -5.9026342      0              58.527045      2047.319     
    812000   297.82253     -4.415122       0              57.910847      2193.1473    
    813000   300.5917      -4.6619653      0              58.243513      2138.6659    
    814000   301.70581     -5.3342871      0              57.804343      2225.8154    
    815000   298.75416     -4.8169167      0              57.704016      2084.0451    
    816000   301.757       -4.780331       0              58.369012      2066.3855    
    817000   305.20151     -2.8865323      0              60.98365       2189.5471    
    818000   306.22096     -4.1994168      0              59.884109      2165.5965    
    819000   291.63777     -2.6072465      0              58.424423      2053.0414    
    820000   306.03337     -4.4128399      0              59.631429      2158.7131    
    821000   287.18819     -4.4447797      0              55.655717      2156.3353    
    822000   301.90287     -5.4828354      0              57.697036      2021.4086    
    823000   278.40082     -4.9938764      0              53.267669      2024.6819    
    824000   302.42973     -4.7931542      0              58.496972      2116.3352    
    825000   294.27641     -4.8908932      0              56.69297       2024.2383    
    826000   302.07987     -4.5301881      0              58.686723      2203.3462    
    827000   311.55841     -6.9652062      0              58.2353        1995.0795    
    828000   294.35489     -4.526434       0              57.073854      2126.1238    
    829000   283.70876     -4.2786311      0              55.093719      2052.3087    
    830000   296.47049     -5.2772446      0              56.76578       2118.9636    
    831000   296.46766     -6.0343318      0              56.0081        2048.5361    
    832000   300.6418      -4.4123993      0              58.503564      2162.6119    
    833000   295.19006     -3.0115344      0              58.763532      2224.822     
    834000   300.02427     -4.4291706      0              58.357561      2085.587     
    835000   315.43848     -4.7379546      0              61.274542      2020.1604    
    836000   311.03695     -2.4698184      0              62.621561      2134.4628    
    837000   302.08326     -5.8214579      0              57.396163      2001.6511    
    838000   308.94019     -5.5368226      0              59.115764      2215.9402    
    839000   298.0952      -4.3812499      0              58.001782      2031.1217    
    840000   303.5236      -3.6410239      0              59.87802       2111.4604    
    841000   304.29481     -5.4314165      0              58.249021      2104.1934    
    842000   300.54236     -3.7015208      0              59.193632      2191.3482    
    843000   303.60136     -4.4244052      0              59.110912      2127.4626    
    844000   285.25929     -4.7149478      0              54.981885      2070.8336    
    845000   300.71725     -5.9582188      0              56.973535      1983.2346    
    846000   300.79493     -5.3804584      0              57.567551      2062.1695    
[...]
   1814000   295.18975     -5.0004411      0              56.774561      2003.3992    
   1815000   300.69818     -4.7444438      0              58.183317      2070.9176    
   1816000   301.22261     -2.7242798      0              60.313231      2010.3693    
   1817000   297.1366      -6.0472356      0              56.135188      1964.4358    
   1818000   295.39579     -5.4918749      0              56.326245      1997.4387    
   1819000   301.90493     -4.0768526      0              59.103449      2175.0781    
   1820000   294.73877     -4.4454237      0              57.2352        1947.102     
   1821000   312.48697     -4.6077623      0              60.787065      2123.8223    
   1822000   298.07504     -4.6926779      0              57.686134      2161.7295    
   1823000   302.81951     -3.3209928      0              60.050706      2073.87      
   1824000   298.77065     -5.090533       0              57.43385       2114.3963    
   1825000   291.89692     -4.7234431      0              56.362461      2140.0876    
   1826000   309.31297     -4.7592861      0              59.971312      2052.8808    
   1827000   298.44817     -5.3433604      0              57.113536      2105.3998    
   1828000   310.28659     -5.1977659      0              59.736583      2112.3006    
   1829000   305.30794     -5.0553933      0              58.837064      2070.5594    
   1830000   292.60099     -4.6420877      0              56.591157      2041.2587    
   1831000   303.82899     -4.4034654      0              59.179487      2085.1501    
   1832000   302.80479     -5.6990616      0              57.669555      2100.0634    
   1833000   292.48988     -4.4925045      0              56.717489      2048.1078    
   1834000   297.42852     -5.9625157      0              56.280998      2036.082     
   1835000   291.71604     -5.1302753      0              55.917776      2220.7919    
   1836000   294.47198     -4.4747072      0              57.150085      2078.7201    
   1837000   304.4671      -4.1983868      0              59.518106      2150.3344    
   1838000   295.20817     -3.2892273      0              58.489628      2095.2633    
   1839000   309.33295     -4.4916058      0              60.243173      2080.3219    
   1840000   300.34494     -2.4520661      0              60.401772      2190.5824    
   1841000   300.70919     -3.1822041      0              59.747863      2117.462     
   1842000   298.49369     -5.4917739      0              56.974651      2137.1647    
   1843000   301.2989      -5.6965166      0              57.35696       2072.6005    
   1844000   301.39034     -5.0912774      0              57.981334      2102.8135    
   1845000   306.19966     -4.5120522      0              59.567017      2161.4628    
   1846000   298.47421     -4.2569679      0              58.205378      2061.6585    
   1847000   296.75316     -2.9197658      0              59.182413      2147.4569    
   1848000   300.47646     -4.5456891      0              58.335672      2159.1871    
   1849000   303.24021     -3.8933173      0              59.566422      2070.5872    
   1850000   310.06221     -5.7252502      0              59.162143      2070.2355    
   1851000   300.19373     -3.0622134      0              59.759982      2162.523     
   1852000   298.04836     -6.1235121      0              56.249717      2047.9695    
   1853000   289.07022     -5.1890968      0              55.305257      2007.4943    
   1854000   307.12937     -4.5463919      0              59.727239      2009.7152    
   1855000   292.06803     -4.9899971      0              56.131714      1999.746     
   1856000   304.6116      -4.3257096      0              59.421022      2024.9981    
   1857000   296.09401     -4.5657841      0              57.398454      2095.6862    
   1858000   296.65001     -4.3031529      0              57.777441      2079.7327    
   1859000   302.2589      -6.0930178      0              57.161359      2116.0361    
   1860000   298.39449     -4.1413304      0              58.304333      2155.2362    
   1861000   305.61038     -7.0149256      0              56.940823      2003.8088    
   1862000   318.55557     -4.1731908      0              62.491626      2215.8975    
   1863000   288.61794     -4.5454458      0              55.854258      2075.7154    
   1864000   297.28781     -5.0171964      0              57.19687       2080.7781    
   1865000   284.70918     -4.2897775      0              55.291931      2086.6358    
   1866000   295.85725     -5.0899762      0              56.824715      2040.2874    
   1867000   290.25407     -3.4109525      0              57.331147      2055.8719    
   1868000   305.32616     -3.8690819      0              60.027188      2136.7306    
   1869000   297.86845     -6.0334233      0              56.302155      2015.1105    
   1870000   297.96236     -5.1022014      0              57.25303       2079.3362    
   1871000   301.81824     -4.4479648      0              58.714194      2138.1859    
   1872000   296.49616     -5.4542695      0              56.594126      2008.1258    
   1873000   303.57368     -4.2860143      0              59.243509      2154.5349    
   1874000   295.66894     -5.1421699      0              56.733111      2101.8112    
   1875000   301.68001     -3.6116662      0              59.521566      2267.611     
   1876000   302.39582     -5.5717282      0              57.711302      2076.1551    
   1877000   295.15252     -5.2579468      0              56.509263      2109.8254    
   1878000   300.77227     -5.7356616      0              57.207606      2005.7276    
   1879000   286.14449     -3.5847906      0              56.297288      2085.6044    
   1880000   301.35265     -3.6713554      0              59.39337       2176.524     
   1881000   299.01805     -4.3541915      0              58.221967      2069.2642    
   1882000   299.30731     -7.3618582      0              55.274833      1965.4017    
   1883000   295.20808     -5.051148       0              56.727689      2072.23      
   1884000   306.28941     -4.1623081      0              59.935542      2226.1034    
   1885000   305.77629     -3.3065814      0              60.683887      2110.7895    
   1886000   293.71578     -5.2692026      0              56.197337      2100.0181    
   1887000   292.82696     -5.7390022      0              55.541533      2006.5715    
   1888000   298.75402     -4.0961885      0              58.424715      2006.0021    
   1889000   297.62444     -3.6212381      0              58.663277      2193.3272    
   1890000   300.57474     -4.2993368      0              58.602592      2132.5181    
   1891000   285.79944     -5.9418919      0              53.867979      2055.3393    
   1892000   297.98031     -4.6637313      0              57.695257      2115.7662    
   1893000   297.73715     -3.4578593      0              58.850242      2075.3661    
   1894000   314.18298     -5.1119617      0              60.637794      2072.1675    
   1895000   289.92767     -4.0946001      0              56.579194      2134.1992    
   1896000   295.64384     -6.1931504      0              55.676878      2121.9334    
   1897000   293.68227     -5.084574       0              56.374954      2157.4493    
   1898000   305.55071     -5.4786979      0              58.464563      2135.3688    
   1899000   297.37176     -3.3544136      0              58.877221      2110.5109    
   1900000   307.79413     -3.8320346      0              60.580713      2142.5811    
   1901000   305.47087     -4.9436087      0              58.982944      2144.8789    
   1902000   305.74116     -5.2604743      0              58.722644      2168.7849    
   1903000   308.81588     -5.2260491      0              59.400522      2252.6448    
   1904000   303.21436     -5.0133451      0              58.440984      2100.6425    
   1905000   301.97496     -4.2797691      0              58.915188      2006.5935    
   1906000   303.85021     -4.7847376      0              58.802657      2013.63      
   1907000   302.83277     -5.0538501      0              58.320623      2120.9657    
   1908000   294.792       -6.3061852      0              55.385578      2064.3243    
   1909000   299.51599     -5.3130256      0              57.367338      2082.3907    
   1910000   296.06148     -4.3136688      0              57.643762      2120.6762    
   1911000   297.06468     -4.7674992      0              57.399872      2111.6476    
   1912000   316.26101     -4.1144598      0              62.07017       2093.9432    
   1913000   300.32324     -3.4810133      0              59.368283      2170.6137    
   1914000   295.99425     -3.3042967      0              58.639064      2078.2132    
   1915000   302.27691     -4.9375793      0              58.320568      2100.2827    
   1916000   305.18086     -4.1607093      0              59.705153      2063.2573    
   1917000   293.14453     -4.4427592      0              56.904233      2094.7665    
   1918000   292.25359     -3.9633883      0              57.197157      2049.2851    
   1919000   289.36903     -4.3099011      0              56.246986      2060.2993    
   1920000   297.20612     -3.8433841      0              58.353586      2031.6765    
   1921000   289.85354     -6.9666044      0              53.691676      1946.2401    
   1922000   289.98199     -5.3391617      0              55.346001      2082.7332    
   1923000   293.12773     -6.4015633      0              54.941915      1998.6871    
   1924000   310.64794     -5.2291118      0              59.780859      2054.3231    
   1925000   297.38732     -4.888465       0              57.346426      2066.9984    
   1926000   296.35883     -3.0100884      0              59.009569      2122.7138    
   1927000   286.91216     -3.0153118      0              57.02742       2175.759     
   1928000   297.37544     -4.0384606      0              58.193944      2023.6729    
   1929000   300.12177     -3.2903879      0              59.516747      2184.102     
   1930000   293.34291     -4.0440172      0              57.344493      2076.2663    
   1931000   300.31855     -3.5211985      0              59.327118      2062.4447    
   1932000   292.41901     -3.1895754      0              58.005587      2097.2968    
   1933000   309.05805     -2.7529438      0              61.924306      2155.2242    
   1934000   295.02249     -5.0319622      0              56.708035      2080.635     
   1935000   295.91779     -5.509136       0              56.418223      2056.7507    
   1936000   305.09671     -3.2318812      0              60.616371      2113.3873    
   1937000   300.76057     -3.1362384      0              59.804581      2132.5845    
   1938000   288.27112     -3.2361713      0              57.090952      1957.4617    
   1939000   288.59113     -4.1218344      0              56.27226       2044.7026    
   1940000   291.04724     -4.1795698      0              56.728519      2109.2919    
   1941000   292.45803     -2.9633977      0              58.23993       2130.5181    
   1942000   295.72437     -6.3389378      0              55.547944      2044.2014    
   1943000   297.23922     -4.6980365      0              57.505862      2048.926     
   1944000   300.69417     -4.9877602      0              57.939162      2139.3655    
   1945000   287.27043     -4.552376       0              55.565332      2079.3185    
   1946000   306.66549     -3.731169       0              60.445385      2114.693     
   1947000   293.2824      -4.9148193      0              56.461026      2091.0865    
   1948000   299.64592     -5.6301208      0              57.077433      2020.1235    
   1949000   307.69871     -5.5673098      0              58.825468      2128.1953    
   1950000   304.98124     -6.1481188      0              57.675968      2027.1398    
   1951000   284.44922     -3.8733235      0              55.653983      2043.0977    
   1952000   299.38059     -4.629147       0              58.022881      2126.504     
   1953000   292.58242     -3.7159816      0              57.513378      2153.3503    
   1954000   315.24604     -5.1225998      0              60.849625      2121.1092    
   1955000   286.29336     -2.7632534      0              57.149981      2108.2591    
   1956000   301.11903     -4.079416       0              58.936418      2098.3761    
   1957000   303.25918     -4.1442733      0              59.319434      2137.8801    
   1958000   298.19512     -3.3800789      0              59.023863      2155.2623    
   1959000   299.6297      -5.5452895      0              57.15887       2088.6353    
   1960000   297.99008     -5.9665649      0              56.394466      2001.867     
   1961000   296.22338     -4.4690174      0              57.522294      2016.4263    
   1962000   302.56348     -5.2795814      0              58.038537      2096.5945    
   1963000   298.5934      -6.2568125      0              56.230478      2119.0355    
   1964000   294.146       -3.5936264      0              57.962947      2102.9133    
   1965000   304.80438     -4.7868008      0              59.000275      2112.9013    
   1966000   301.13224     -4.3008797      0              58.71772       2078.6212    
   1967000   306.54608     -3.5424806      0              60.609084      2171.0686    
   1968000   294.84818     -5.0188394      0              56.68468       2031.1139    
   1969000   303.57774     -4.5573178      0              58.973056      2103.9165    
   1970000   299.3575      -6.1297679      0              56.517427      2057.0247    
   1971000   291.64913     -5.660793       0              55.373255      2052.7588    
   1972000   298.0635      -4.6279282      0              57.748468      2045.535     
   1973000   302.33074     -4.0538375      0              59.215573      2057.064     
   1974000   311.56814     -4.6673049      0              60.535237      2195.2065    
   1975000   296.77598     -6.0131744      0              56.093779      2084.119     
   1976000   301.26558     -4.6003208      0              58.446181      2065.5711    
   1977000   310.77373     -4.7190284      0              60.317266      2215.2887    
   1978000   315.44638     -4.1130027      0              61.901147      2169.3673    
   1979000   298.34332     -3.4249689      0              59.009986      2070.8021    
   1980000   295.36983     -4.8753199      0              56.937367      2087.0114    
   1981000   305.07955     -5.432552       0              58.412108      1968.3806    
   1982000   301.55076     -4.8700492      0              58.236133      2110.7394    
   1983000   299.63688     -4.7655929      0              57.940069      2029.1042    
   1984000   307.39481     -2.4861041      0              61.843077      2250.0571    
   1985000   293.91465     -4.8258269      0              56.68233       2061.4532    
   1986000   298.01629     -2.949713       0              59.416805      2163.4607    
   1987000   307.4476      -5.1014706      0              59.238757      2094.8601    
   1988000   289.07615     -3.7520419      0              56.743553      2063.9577    
   1989000   291.40888     -4.1765232      0              56.807248      2130.4758    
   1990000   303.31415     -4.2736752      0              59.201536      2111.1521    
   1991000   317.24796     -5.9916206      0              60.39955       2111.9768    
   1992000   291.89617     -3.7842414      0              57.301506      2073.8221    
   1993000   296.47782     -4.1964756      0              57.848083      2187.9626    
   1994000   305.98997     -3.6677497      0              60.367437      2142.4024    
   1995000   298.45789     -5.2251911      0              57.233741      2102.3866    
   1996000   305.59642     -4.1155436      0              59.837285      2149.1622    
   1997000   293.69425     -4.1371039      0              57.324931      2034.7785    
   1998000   297.71547     -6.0651188      0              56.238445      2025.1983    
   1999000   304.63501     -3.4312133      0              60.320418      2135.9114    
   2000000   308.49692     -4.7235555      0              59.836266      2146.9881    
   2000101   299.89074     -4.8830503      0              57.875738      2166.0856    
Loop time of 14015 on 16 procs for 2000000 steps with 1620 atoms

Performance: 6.165 ns/day, 3.893 hours/ns, 142.704 timesteps/s
99.9% CPU use with 16 MPI tasks x 1 OpenMP threads

MPI task timing breakdown:
Section |  min time  |  avg time  |  max time  |%varavg| %total
---------------------------------------------------------------
Pair    | 10982      | 11928      | 12810      | 587.3 | 85.11
Bond    | 1.5588     | 1.6204     | 1.6824     |   2.9 |  0.01
Neigh   | 16.158     | 16.768     | 17.56      |  11.5 |  0.12
Comm    | 1131.4     | 2013.4     | 2959.5     |1430.4 | 14.37
Output  | 1.1744     | 1.1748     | 1.1772     |   0.1 |  0.01
Modify  | 28.649     | 28.954     | 29.173     |   3.0 |  0.21
Other   |            | 24.8       |            |       |  0.18

Nlocal:         101.25 ave         110 max          92 min
Histogram: 1 0 1 5 0 2 3 1 2 1
Nghost:        5049.44 ave        5090 max        4997 min
Histogram: 1 0 2 1 1 3 4 1 2 1
Neighs:        51643.2 ave       59187 max       45469 min
Histogram: 1 2 2 3 1 3 0 3 0 1

Total # of neighbors = 826291
Ave neighs/atom = 510.05617
Ave special neighs/atom = 0
Neighbor list builds = 10414
Dangerous builds = 0
comm_modify cutoff 27.58
compute myRDF all rdf 1129 cutoff 22.58
fix 2 all ave/time 1 1 1 c_myRDF[*] file ljg2_nvt_44rdf.rdf mode vector
run 0 pre yes post no
Generated 0 of 0 mixed pair_coeff terms from geometric mixing rule
WARNING: Compute rdf cutoff less than neighbor cutoff - forcing a needless neighbor list build (src/compute_rdf.cpp:179)
Neighbor list info ...
  update every 1 steps, delay 0 steps, check yes
  max neighbors/atom: 200000, page size: 2000000000
  master list distance cutoff = 27
  ghost atom cutoff = 27.58
  binsize = 13.5, bins = 4 5 4
  4 neighbor lists, perpetual/occasional/extra = 3 1 0
  (1) pair lj/cut, perpetual
      attributes: half, newton on
      pair build: half/bin/newton
      stencil: half/bin/3d
      bin: standard
  (2) pair gauss/cut, perpetual, copy from (1)
      attributes: half, newton on
      pair build: copy
      stencil: none
      bin: none
  (3) pair gauss/cut, perpetual, copy from (1)
      attributes: half, newton on
      pair build: copy
      stencil: none
      bin: none
  (4) compute rdf, occasional
      attributes: half, newton on, cut 24.58
      pair build: half/bin/newton
      stencil: half/bin/3d
      bin: standard
Per MPI rank memory allocation (min/avg/max) = 3.053e+04 | 3.053e+04 | 3.053e+04 Mbytes
   Step          Temp          E_pair         E_mol          TotEng         Press     
   2000101   299.89074     -4.8830503      0              57.875738      2166.0856    
Loop time of 4.73563e-06 on 16 procs for 0 steps with 1620 atoms

uncompute myRDF
unfix 2
write_data ljg2_nvt_44/ca_md.data nocoeff nofix
System init for write_data ...
Generated 0 of 0 mixed pair_coeff terms from geometric mixing rule
Neighbor list info ...
  update every 1 steps, delay 0 steps, check yes
  max neighbors/atom: 200000, page size: 2000000000
  master list distance cutoff = 27
  ghost atom cutoff = 27.58
  binsize = 13.5, bins = 4 5 4
  3 neighbor lists, perpetual/occasional/extra = 3 0 0
  (1) pair lj/cut, perpetual
      attributes: half, newton on
      pair build: half/bin/newton
      stencil: half/bin/3d
      bin: standard
  (2) pair gauss/cut, perpetual, copy from (1)
      attributes: half, newton on
      pair build: copy
      stencil: none
      bin: none
  (3) pair gauss/cut, perpetual, copy from (1)
      attributes: half, newton on
      pair build: copy
      stencil: none
      bin: none
Total wall time: 3:53:36
