LAMMPS data file via write_data, version 29 Sep 2021, timestep = 4574860

1620 atoms
1 atom types

0 52.794504272175 xlo xhi
0 54.794296100667 ylo yhi
0 45.195295323908 zlo zhi

Masses

1 40.078

Atoms # full

119 0 1 0 10.426188683216589 10.890025402619765 13.50492276149711 0 0 0
743 0 1 0 12.662400589844644 1.9452294119140832 7.741972289304756 0 -6 0
100 0 1 0 4.661326278847326 6.60117943704267 0.5241424709400571 0 0 -2
4 0 1 0 6.850727903483581 7.612464393459303 11.591045813114945 0 0 0
450 0 1 0 10.976987149695109 11.181963263677416 4.822028657655172 0 0 0
6 0 1 0 12.59802341955244 8.417790136802427 11.386856888340601 0 0 0
452 0 1 0 9.56018879361614 3.8645465642275676 11.289118956022032 0 0 0
92 0 1 0 10.669116580323784 5.553346037080748 0.6492237157120283 0 0 1
9 0 1 0 9.700257883408913 10.068606403837592 9.25727217805756 0 0 0
36 0 1 0 7.516893380141104 4.1695228104818485 1.8888663908314272 0 0 0
34 0 1 0 8.571184065729478 0.3604844442007993 3.005604863040023 0 0 0
19 0 1 0 11.069489815308026 3.454361898154938 3.645980032692892 0 0 2
1246 0 1 0 0.5909143061822745 7.704657206657417 12.049224568622893 -3 0 0
35 0 1 0 5.342491151124691 4.356050160162708 5.957275357394657 0 0 0
440 0 1 0 11.191225973093516 7.191628930385383 5.572125984571394 0 0 0
16 0 1 0 5.585938392049027 4.487183894634954 14.225839812449053 0 0 0
120 0 1 0 2.5625992811351512 12.471319793511643 8.790515837226131 -7 0 0
18 0 1 0 7.680994408743792 6.836057980852552 7.5155122391666325 0 0 0
88 0 1 0 6.263410454003117 7.659760191110189 4.31836268690247 0 0 1
20 0 1 0 4.247395948805092 10.283194911778324 11.476604155407369 0 0 0
31 0 1 0 2.5921675207231374 2.0487275615834992 5.492420329875853 0 0 0
22 0 1 0 1.4040878528842167 10.185913735355241 1.9438726864117672 0 0 0
23 0 1 0 8.838367126938579 2.085426556512475 7.182719543915948 0 0 0
8 0 1 0 4.764038773817413 11.002654098695857 0.719217011677907 0 0 0
5 0 1 0 4.44590109591395 0.3904569921307426 10.534876260803932 -3 -4 0
29 0 1 0 6.459250796203523 11.972663554016831 6.436654520761495 0 0 0
27 0 1 0 3.0231037432054793 6.630783324984129 9.0561545313027 0 0 0
30 0 1 0 1.3658501574599893 4.570384045627475 2.806507712586786 0 0 0
124 0 1 0 11.635681553601893 13.245005316086706 7.869926316139062 0 0 0
1266 0 1 0 0.4514024677874767 1.5382695947376444 9.564033605130993 0 0 0
13 0 1 0 8.247165831435115 13.579930694354067 12.286860151898129 0 0 0
7 0 1 0 4.062115685804313 2.2386585413296793 0.21356441263016124 0 0 9
43 0 1 0 9.757833097933199 4.202451944493593 15.000702664252298 0 0 0
37 0 1 0 9.874018021834381 6.279151851343624 22.798767736737194 0 0 0
38 0 1 0 8.379966214208565 4.496539448650362 28.062620832387328 0 0 0
39 0 1 0 9.38423611095314 11.815484258136868 19.863311549275632 0 0 0
40 0 1 0 1.987727663676117 5.020702252385848 22.273024490191446 0 0 0
69 0 1 0 4.916786136832648 4.792515690377007 19.43590755298833 0 0 0
42 0 1 0 9.693280466868163 11.148562438595823 27.640871181929377 0 0 0
402 0 1 0 7.750917463557681 0.23429083953419083 26.845005717724693 0 1 0
64 0 1 0 1.1608554320416404 10.018203345666805 23.739684959005075 0 0 0
70 0 1 0 1.8005583879026763 7.404429569774455 17.019992386955504 -4 0 0
1275 0 1 0 2.0592364851241403 12.395072362025006 26.381707760549112 1 0 0
67 0 1 0 7.802942571059941 2.387220380426759 22.044576973167903 0 0 0
354 0 1 0 3.168046585107892 0.9668358749662116 18.90990914516721 0 6 0
65 0 1 0 12.292994547431098 7.946276675454289 28.76525311560758 0 0 0
372 0 1 0 3.824510847033979 2.0608112022988085 22.816192198511004 0 3 0
86 0 1 0 4.160341339497717 2.6219635606022935 28.62968926106407 0 0 0
52 0 1 0 12.53554133965761 8.799272723670555 24.331324445074795 0 0 0
1377 0 1 0 0.6622237726916705 12.806619345042932 20.568877414492537 1 0 0
54 0 1 0 3.7729484447496513 11.098435032111347 21.365565073447552 0 0 0
55 0 1 0 7.580930299254587 7.730514499182838 17.707455285330497 0 0 0
56 0 1 0 5.95292080739078 6.350504181648694 24.07140525952953 0 0 0
66 0 1 0 2.583498416826609 10.658257036941675 29.375941446028282 0 0 0
58 0 1 0 10.987945232915278 4.167309049127155 18.58422816950489 0 0 0
59 0 1 0 6.3862911212913165 9.850950017849577 26.96297421532728 0 0 0
60 0 1 0 6.893036420511864 9.386995405585214 21.748201549687344 0 0 0
46 0 1 0 5.017742654201278 13.139369156878018 24.33089086363425 0 0 0
62 0 1 0 10.835642173225631 0.955892555797444 15.714187924687087 0 3 0
382 0 1 0 11.495712928085545 3.1248592904645096 25.377585528478168 0 2 0
61 0 1 0 7.41923978935537 11.71987231267901 16.291723658592797 0 0 0
462 0 1 0 11.901523125941116 11.86123038582341 22.397179069621945 0 0 0
76 0 1 0 2.8047395835655835 6.380148302971968 29.39617656377192 0 0 0
374 0 1 0 7.570081381483017 2.2231022379851253 16.913876719022724 0 3 0
500 0 1 0 12.43717991890299 12.097564887020104 29.731635697589596 0 0 0
3 0 1 0 4.387904933922111 9.703937241410584 16.85243810278945 0 0 0
778 0 1 0 12.488420705208803 0.7805567823644268 20.29376018370992 0 1 0
489 0 1 0 12.904482366283126 12.226521284592218 15.879597409338672 0 0 0
72 0 1 0 10.472076047691308 11.378390722938608 36.47847361550824 0 0 0
73 0 1 0 8.982259751832567 5.637133493736937 34.175319666922526 0 0 0
74 0 1 0 6.42931744127496 12.325193830774003 40.943720599221564 0 0 0
103 0 1 0 11.797613186736593 2.4275040872530416 38.92075656978109 0 0 0
82 0 1 0 4.6767930341276385 0.6860058239707894 32.35925004099354 0 -6 0
102 0 1 0 12.066261684974052 8.01120112913626 36.803558927821655 0 0 0
104 0 1 0 6.861238472544608 11.3238385006137 37.23237999438724 0 0 0
79 0 1 0 1.8985824251474857 3.4644479180186947 41.92813510502772 0 0 0
11 0 1 0 8.430673064243443 10.78735294269689 44.30977428893222 0 0 7
81 0 1 0 7.130393212437116 10.280351113957906 32.61041621296279 0 0 0
12 0 1 0 0.5441915889109867 7.718106895664941 42.8334844387674 -1 0 -1
83 0 1 0 9.582599012999257 7.094242829339529 39.83060552673833 0 0 0
106 0 1 0 10.057033711250126 12.995337372008741 32.8451512215308 0 0 0
85 0 1 0 5.440493952764714 6.96017413183368 32.7310285918417 0 0 0
93 0 1 0 9.275783356927167 7.132794234403362 31.05492346423722 0 0 0
87 0 1 0 4.098784296516935 2.3909466996225732 36.51930408998197 0 0 0
401 0 1 0 0.6705727316309019 1.0907577374326205 31.60276827790722 2 2 0
1 0 1 0 8.201000716986517 1.3267475533730515 44.56052501661811 0 -10 0
90 0 1 0 9.608790823175031 10.656700355804686 40.42181836006712 0 0 0
91 0 1 0 2.159175098699604 7.220733999457624 36.75599701766752 0 0 0
48 0 1 0 8.728680893805969 2.784709813506175 31.887240204569213 0 0 0
84 0 1 0 0.755719927680435 3.9476662874133637 36.57141136437644 0 0 0
94 0 1 0 7.866542344045695 4.139263666975118 37.52728238503703 0 0 0
105 0 1 0 1.3631963006148256 10.726728287934156 38.47221035728762 1 0 0
96 0 1 0 4.072978038157645 9.252114314049415 40.156498525930765 0 0 0
97 0 1 0 6.768082104260976 7.461688474699093 42.752749638781054 0 0 0
98 0 1 0 6.785017291247832 3.25117618825379 41.45107938713916 0 0 0
192 0 1 0 1.999287268333012 11.592018216408702 43.313275132886396 0 0 3
1315 0 1 0 4.062661015122826 12.632418891929307 34.77904563674166 1 0 0
101 0 1 0 6.316351185998289 7.54478241141276 36.613778862504105 0 0 0
525 0 1 0 12.150686506989885 4.399110791873138 31.323520965976535 0 0 0
75 0 1 0 13.02348024362911 11.143627124322911 45.02782566971223 0 0 4
80 0 1 0 12.817647109624396 8.48934726960927 41.35955867812933 0 0 0
77 0 1 0 13.085737789718987 3.3223415398041287 35.583107727439106 0 0 0
1366 0 1 0 1.4226721985678445 22.304353699796565 10.939012403171015 0 0 0
110 0 1 0 6.759285034074658 20.85062171154843 7.77810892869092 0 0 0
111 0 1 0 3.158872989286747 18.15031960664036 12.903101638429412 0 0 0
125 0 1 0 1.4906039639539348 19.821473766270497 2.314668295848883 0 0 0
26 0 1 0 11.79212345254908 16.987649338310618 3.3547113690162105 0 0 -1
114 0 1 0 4.893707374190164 25.418345352722003 7.66960087221058 0 0 0
665 0 1 0 12.854142864425407 26.596111517021903 8.524973933418798 0 0 0
121 0 1 0 10.40029887416247 24.043303271007062 10.324389233075319 0 0 0
117 0 1 0 5.914631153644388 25.054916181988858 3.1433300738376158 0 0 0
141 0 1 0 7.20514164238986 14.02805459341428 3.0255185469892245 0 0 0
139 0 1 0 2.7808195603316412 22.112891180250298 7.201490361924252 0 0 0
126 0 1 0 3.716913384221045 14.137933160612251 11.984444509334955 0 0 0
143 0 1 0 6.787104261569676 23.37454955629954 11.329893088092593 0 0 0
122 0 1 0 10.843121722080776 18.430530576342523 9.701873285169386 0 0 0
123 0 1 0 9.287775921136305 22.429199272150193 13.919432758740268 0 0 0
219 0 1 0 8.388528350801664 26.876325849985275 7.353316708391916 0 0 0
554 0 1 0 12.106020019689826 19.480286841669155 1.2992147806003196 0 0 0
208 0 1 0 11.76395715228377 26.583040006083102 4.789950812307868 0 0 0
109 0 1 0 8.73603354496314 19.01807672293406 14.756168583577955 0 0 0
10 0 1 0 1.467894616862273 14.631920957196964 5.4602799839695795 -5 0 0
129 0 1 0 10.369209313646023 20.976834806799044 7.164826380368715 0 0 0
130 0 1 0 5.360575941400653 21.324468312904006 3.3081166431804063 0 0 0
138 0 1 0 2.746482352984663 17.416823237524003 7.750944718790487 0 0 0
132 0 1 0 6.916392807423349 19.163202761764477 11.079010309173357 0 0 0
118 0 1 0 1.9682219365446967 23.84912793962052 2.8325773195575232 0 0 0
134 0 1 0 11.515466665706374 14.797391007634436 11.64658173427359 0 0 0
135 0 1 0 4.376876027678107 24.32227764064148 14.260375978676693 0 0 0
153 0 1 0 12.584616115667716 17.926695551067187 12.966825782081752 0 0 0
137 0 1 0 6.386667874758616 15.087936769776707 9.084074445392401 0 0 0
206 0 1 0 3.514301159189193 27.184442512942677 10.883181499560278 -1 0 0
127 0 1 0 1.7731233128850838 27.184175435260332 14.746625009438246 -1 0 0
545 0 1 0 13.141751515177903 22.232340246699625 8.440556559647426 0 0 0
160 0 1 0 7.533388422790545 19.755809761089186 28.815381586458415 0 0 0
165 0 1 0 9.78618828648376 25.527215657949704 16.47954044485952 0 0 0
113 0 1 0 6.199880384613308 24.443927450142564 17.949335567471607 0 0 0
147 0 1 0 9.283854132360037 17.2775225492381 23.855280747799917 0 0 0
148 0 1 0 2.979345833311457 21.422219470079416 21.55704622291197 0 0 0
149 0 1 0 1.2260716187937093 16.49634018438297 20.282552844769334 0 0 0
128 0 1 0 3.360048908037105 16.818272421772395 16.950265457262685 0 0 0
151 0 1 0 9.640954244750848 22.17967073210299 26.639585278302782 0 0 0
51 0 1 0 11.128009778509075 15.460232775948317 17.917340312580954 0 0 0
197 0 1 0 7.782212799942736 15.75823785561837 28.77477399594491 0 0 0
154 0 1 0 6.0172778453650855 21.337734252182674 19.332634902268826 0 0 0
142 0 1 0 12.680443580798213 22.048441297375128 15.537781008562321 0 0 0
179 0 1 0 6.720534310096775 26.209420907999675 29.46158692365232 0 0 0
157 0 1 0 9.700112826203565 24.761816888272026 20.4160275643213 0 0 0
167 0 1 0 4.080071779840714 16.815559203128437 29.272317334903203 0 0 0
159 0 1 0 5.063123660270842 18.439707934535377 26.215247697166248 0 0 0
173 0 1 0 1.3522127286033159 22.82212803380513 26.716377918515153 -2 0 0
112 0 1 0 3.5533026069934053 20.58488272583132 15.889961661264872 0 0 0
162 0 1 0 3.532958321962723 17.324329260068822 22.913283294051144 0 0 0
163 0 1 0 4.772609614452983 23.21285828449469 28.72143152376914 0 0 0
164 0 1 0 0.6962073079741633 24.974595635768953 17.97068992032066 0 0 0
1379 0 1 0 1.8320620244510513 19.633375869000595 27.944603156660403 -4 0 0
166 0 1 0 6.212800637393117 24.29312612625175 24.79323541109775 0 0 0
136 0 1 0 11.093127277925928 20.055364124675755 18.39424054408662 0 0 0
168 0 1 0 8.786673452081654 16.455480906294166 20.47584330023463 0 0 0
169 0 1 0 7.934317958327345 21.641619429331925 22.80701185961945 0 0 0
170 0 1 0 11.544402869136325 20.22238264367261 24.39497486848477 0 0 0
44 0 1 0 11.229398086814323 14.764097827203777 25.38689535986987 0 0 0
172 0 1 0 1.825383035400898 25.00002555490763 22.41933736623474 0 0 0
155 0 1 0 12.201301807285716 16.759487299591516 28.920155991694244 0 0 0
50 0 1 0 5.032143291408984 15.021294602935109 20.092700181768162 0 0 0
45 0 1 0 6.942734072060378 15.225415050250165 15.32894001311221 0 0 0
269 0 1 0 4.067508214314685 26.725612549963106 20.3479293320651 0 0 0
274 0 1 0 8.509408051264657 27.090196462249846 25.692130894191024 0 0 0
116 0 1 0 0.058569217459790934 21.317992002476107 16.269593551134587 4 0 0
146 0 1 0 4.825807579355893 13.702686626893188 28.16880355525861 0 0 0
177 0 1 0 11.746538214891752 24.064458166536035 35.566428262779276 0 0 0
175 0 1 0 10.546661772959958 15.969622700698366 35.789187032770464 0 0 0
176 0 1 0 1.0739225772737189 24.352989552512874 44.12061564974411 0 0 0
195 0 1 0 3.7097828474540613 24.52782131696635 38.09889218275194 0 0 0
178 0 1 0 2.0331298420094774 23.85526235399571 31.726675482602523 0 0 0
1312 0 1 0 2.090376400188378 14.762321030673675 31.775668069731537 -3 0 0
180 0 1 0 7.589615693710767 15.75554726967698 33.264003674573495 0 0 0
181 0 1 0 7.622847745615663 23.35069879000674 34.42910428723314 0 0 0
182 0 1 0 6.115476797901449 20.623138142934984 32.413621374981055 0 0 0
298 0 1 0 5.235465138607846 26.919406182751995 40.414222117746256 0 0 0
184 0 1 0 7.773433581416656 15.967529831299931 40.77292162330577 0 0 0
185 0 1 0 2.4205607786382974 15.874125330037538 44.21658105103761 0 0 0
186 0 1 0 6.6920749394518655 21.733219972630074 37.3248117765433 0 0 0
205 0 1 0 4.192478708551889 19.116417735190986 37.59525562058109 0 0 0
152 0 1 0 10.204843259828225 24.097529256243202 31.09943725310878 0 0 0
189 0 1 0 9.172696072937656 19.076027984891635 34.82117964058704 0 0 0
190 0 1 0 9.447002483124576 20.538460526357635 39.384202551273376 0 0 0
191 0 1 0 3.7692196902784216 22.102044843180057 35.17721254982292 0 0 0
601 0 1 0 12.30816152795225 23.77746953853642 39.665966736774195 0 0 0
187 0 1 0 3.3953222550175592 15.299011320716438 40.37002640357866 0 0 0
115 0 1 0 4.641260034385014 18.295889799153457 42.84090706338924 0 0 -1
239 0 1 0 5.78428575757367 25.392205484963462 44.7093953469308 0 0 -4
108 0 1 0 11.193895251665275 13.844144258081611 39.39914728383436 0 0 0
174 0 1 0 11.48717147923738 19.60823327908812 31.666800688580793 0 0 0
198 0 1 0 4.4772904092295684 22.034103135238777 43.13801190094241 0 0 0
199 0 1 0 1.488971025109221 27.12192035728085 32.63482150329848 0 0 0
200 0 1 0 6.781770048652745 16.155276774886648 37.3257372315189 0 0 0
201 0 1 0 8.274312977533205 23.73807085055444 41.52782153477948 0 0 0
202 0 1 0 5.459635016171299 26.550645810088067 33.054126075005556 0 0 0
295 0 1 0 10.411152641807238 27.26025496146896 34.21923657270989 0 0 0
1429 0 1 0 1.3214275046087618 19.195876893706515 34.886746322912394 -1 0 0
598 0 1 0 10.95486373650222 17.48360469075247 43.04609088081143 0 0 5
321 0 1 0 9.29655256056876 27.288763686462094 43.806009906123684 0 0 0
1413 0 1 0 0.2359897621210459 15.582389767491097 37.67321875748539 -1 0 0
605 0 1 0 11.129697401422678 24.374231611213112 44.898731872510105 0 0 -5
188 0 1 0 7.703404319686882 18.878526673775124 44.70064813169362 0 0 -4
95 0 1 0 9.76077351759075 14.585661385700126 45.09592416431823 0 0 -1
1420 0 1 0 2.426079786197189 27.19822357601731 36.16281638824558 3 0 0
1421 0 1 0 0.23168722754128906 19.515957039185015 38.79122698293742 -5 0 0
203 0 1 0 0.18404831072884673 23.565003809046242 40.11091355796972 -1 0 0
242 0 1 0 5.448744276677623 28.594266477303456 5.834772623572736 0 0 0
344 0 1 0 9.111607846332284 37.27467050696248 3.450147440849147 0 0 0
233 0 1 0 0.5296991666585116 31.631455540562346 7.931114496368495 0 0 0
255 0 1 0 2.7131908053510254 39.48001147166634 12.066848629816558 0 0 0
240 0 1 0 12.511171629594108 35.68189396645575 7.888973498760969 0 0 0
211 0 1 0 3.923319524544404 33.13122478951557 3.973004455979357 0 0 0
1440 0 1 0 1.7906013315377354 34.9428747672566 0.20552606658561956 -1 0 -3
243 0 1 0 4.875871266463042 35.20743181250248 9.800521608434927 0 0 0
214 0 1 0 9.19910197998684 30.664264888834467 5.7632131489916185 0 0 0
215 0 1 0 8.351289115755215 34.435474406617686 5.7143271506251665 0 0 0
216 0 1 0 7.401987219476656 29.165998118874292 2.2066620967232353 0 0 0
217 0 1 0 10.886117987277265 30.0219817777711 9.734161269944819 0 0 0
232 0 1 0 7.0371126560540045 27.615956661128564 11.46227122277064 0 0 0
259 0 1 0 8.069969766031438 33.12288231605192 13.466145338214053 0 0 0
364 0 1 0 5.877305325367412 40.584179805805675 13.802760428877312 0 0 0
221 0 1 0 4.144650718686602 30.978851328258838 8.397750111706284 0 0 0
222 0 1 0 7.494832256715668 31.033216761904193 10.031611458268726 0 0 0
238 0 1 0 4.058868381358275 31.16529628436126 13.01831301405467 0 0 0
224 0 1 0 8.297564286331745 35.728356094069184 9.127512527103741 0 0 0
300 0 1 0 10.916500700163217 30.16723643650427 2.200848495376569 0 0 -3
226 0 1 0 3.0160550146820584 30.078409638929923 1.0413716845679555 0 0 0
227 0 1 0 2.3627677829476936 38.64360522766299 1.4200867904217531 0 0 0
228 0 1 0 5.316898710399356 38.58061273014076 4.6592638210832344 0 0 0
140 0 1 0 0.2900185047975129 28.637288444272635 9.556736567612923 -2 0 0
230 0 1 0 2.5359823717802135 36.33343168400232 6.257338773862487 0 0 0
212 0 1 0 5.5639999293006674 35.77450198759076 1.3613760661600942 0 0 1
297 0 1 0 7.789909940165274 32.67958297485086 0.09239395007533051 0 0 -1
676 0 1 0 12.21567992546045 40.467346519037896 4.484774611962008 0 0 0
666 0 1 0 12.397225747318831 39.04822141590872 11.907626376673857 0 0 0
235 0 1 0 8.559049351819226 38.75956939277535 7.008380851650496 0 0 0
236 0 1 0 8.536120092322932 38.209922310129855 11.33829949409041 0 0 0
668 0 1 0 11.680141123385186 33.33444527897153 10.797625149805146 0 0 0
207 0 1 0 11.371519991061984 33.63822523967545 4.1739268597427035 0 0 0
278 0 1 0 4.8176903629315335 34.56794303026883 14.308868705405619 0 0 0
234 0 1 0 12.18124894021833 35.64282335641218 14.624210861627565 0 0 0
237 0 1 0 7.46504647998623 40.003647740267105 1.0121808239743493 0 0 3
289 0 1 0 9.401163670721852 38.32040594221709 14.79401584958308 0 0 0
225 0 1 0 0.12475098002491233 38.59189727149554 4.55764658555787 -12 0 0
133 0 1 0 1.2855839236588442 27.624500107877783 5.446406480085999 0 0 0
262 0 1 0 9.806061156824708 28.142028405474992 13.832899022991231 0 0 0
220 0 1 0 0.09883118385072565 32.125209157769966 12.487587798946103 1 0 0
651 0 1 0 13.082126167495389 29.63036140032668 14.95350542671848 0 0 0
542 0 1 0 13.19626559793883 27.964774880835208 0.023150877457474905 0 0 1
1490 0 1 0 1.0926861780171389 40.3746353808902 21.0589425337795 1 0 0
281 0 1 0 5.426569927746816 37.1711524882086 25.911311282005215 0 0 0
288 0 1 0 6.379362648111107 33.47210825956087 26.970054191699134 0 0 0
248 0 1 0 1.8309100347060265 28.71940791027639 24.494209661862115 0 0 0
249 0 1 0 9.406465613230413 34.8110876200357 17.11184592370016 0 0 0
250 0 1 0 6.477344599937261 36.83119125917453 19.618956941267694 0 0 0
258 0 1 0 5.497586805372732 40.90235026325315 25.41778783226233 0 0 0
252 0 1 0 1.2844539333638336 37.38468621791705 22.88731081030329 0 0 0
260 0 1 0 8.142735069749738 30.148569596738604 28.754302878899733 0 0 0
254 0 1 0 9.342733082932034 30.525206871581627 16.232448805712654 0 0 0
272 0 1 0 0.28641929161550955 30.996450531021644 21.58305930462168 -10 0 0
256 0 1 0 5.868869029333344 29.488734044720648 24.659561555647052 0 0 0
257 0 1 0 3.517098636371419 31.7261897941579 16.587599548875776 0 0 0
286 0 1 0 4.2806958647122695 30.79533495663546 19.78770058975392 0 0 0
161 0 1 0 9.484333796434772 29.387094734322325 22.87000148749907 0 0 0
311 0 1 0 9.920849237366713 33.877601375510174 28.78926983178633 0 0 0
384 0 1 0 9.881270114928078 40.48813212697206 27.4180974588186 0 0 0
282 0 1 0 10.366755600780301 33.15082787290237 24.97769704121067 0 0 0
264 0 1 0 1.6855708059884695 37.758808586262525 29.10832489745397 0 0 0
411 0 1 0 4.927145278596494 39.84465239904418 29.505387472175244 0 0 0
265 0 1 0 4.95587017761021 32.61722564718501 22.903502269532936 0 0 0
291 0 1 0 0.4665042329938044 33.63601645295692 26.073253444177038 -6 0 0
574 0 1 0 13.100329484471438 29.042588141295276 27.8620265464053 0 0 0
268 0 1 0 3.714539342635382 35.63569352264526 17.41396551947951 0 0 0
231 0 1 0 6.242119992912147 27.937156480678492 15.33830570398079 0 0 0
279 0 1 0 10.3365001655937 38.950287054202335 18.59007516213557 0 0 0
271 0 1 0 8.899056429995602 37.228385522000615 27.1228300532841 0 0 0
699 0 1 0 12.291799206107424 27.56440038482017 18.68346364766979 0 0 0
273 0 1 0 10.666661318036718 32.69165041009105 20.982405862152454 0 0 0
145 0 1 0 1.1894550089452598 28.54248669954138 29.315484670349427 0 0 0
275 0 1 0 8.332772324580434 36.0069934981246 23.041724280458826 0 0 0
685 0 1 0 13.135106218875887 38.96837167058928 25.368241772745133 0 0 0
1491 0 1 0 0.00855399346566088 40.570970309232 16.400220557853938 4 0 0
325 0 1 0 6.13661869734846 34.35589713845161 39.60220253955736 0 0 0
276 0 1 0 10.437225879327674 27.70669784118434 30.199400533620175 0 0 0
294 0 1 0 11.431084706622254 31.231801940981263 37.22302770638459 0 0 0
323 0 1 0 7.569290193498445 38.17539568561993 39.21437052052858 0 0 0
324 0 1 0 1.3691324293394063 31.15238846256188 33.34297391632744 0 0 0
244 0 1 0 9.673243876163477 35.9959565381778 45.06909593043326 0 0 0
316 0 1 0 3.8211106049537498 35.37673258162471 32.04496862014291 0 0 0
299 0 1 0 8.396166109803488 34.692701137053646 36.47075040942957 0 0 0
296 0 1 0 2.2312549614841126 29.43081589188622 39.867219663596025 0 0 0
301 0 1 0 10.970405763232918 39.13077671885143 35.765107710705394 0 0 0
1457 0 1 0 0.47600503782975356 28.546160089534098 43.53594135758378 -3 0 0
303 0 1 0 2.9313350624140386 39.52598982348904 38.83908714416303 0 0 0
304 0 1 0 4.346911447819314 31.022356199254244 36.853265260391936 0 0 0
305 0 1 0 12.348356724443185 40.632504999348 39.435652864427475 0 0 0
709 0 1 0 11.308279503013496 32.71791869797537 32.36612580900081 0 0 0
194 0 1 0 6.866978801030943 28.89319494749017 35.16758520123277 0 0 0
308 0 1 0 7.187560230017766 32.00860648556836 33.33365493356027 0 0 0
307 0 1 0 4.336533721303937 31.793034119605927 30.23010905439178 0 0 0
310 0 1 0 11.98552351909731 31.77415489405397 41.6681966372705 0 0 0
229 0 1 0 5.548357737226733 35.79752573896164 42.95200538073621 0 0 3
713 0 1 0 11.725355164753697 35.852018709954905 34.44547025773457 0 0 0
313 0 1 0 6.379702567216361 30.197505437401148 40.195121958497005 0 0 0
314 0 1 0 11.058462061146367 36.690771342512456 39.00897558370798 0 0 0
1515 0 1 0 2.2106506046913537 37.058568819544504 41.97653845159885 -1 0 0
293 0 1 0 0.6063402426597031 36.78438047469101 38.055117046452835 0 0 0
317 0 1 0 3.7240978973253953 36.12156137174113 36.916048060130656 0 0 0
213 0 1 0 4.464030480207639 39.16044914813959 44.00658588339422 0 0 5
319 0 1 0 8.570613988409654 35.619110507266456 31.856206419891887 0 0 0
320 0 1 0 6.602481849370793 38.224059520571686 35.123621274508466 0 0 0
306 0 1 0 6.184943272180185 29.611112230074763 44.12596272713044 0 0 -2
309 0 1 0 0.22771594061225253 37.22158003912489 33.75678734251191 -1 0 0
1519 0 1 0 1.8447115833869125 33.29948375064103 38.67327668235739 -2 0 0
210 0 1 0 12.95396442109389 39.208286419604086 44.11521947897208 0 0 1
711 0 1 0 10.169765170560385 27.400069113098365 39.705214499849504 0 0 0
326 0 1 0 7.615755813366786 45.705448061938135 12.382667640636056 0 0 0
327 0 1 0 3.7295572246694078 48.77462651760523 13.936221383305627 0 0 0
744 0 1 0 9.460192210201157 51.58548466834444 7.219394433641736 0 0 0
329 0 1 0 9.441812547516058 44.842165010175734 8.532195724033015 0 0 0
330 0 1 0 11.177767799137397 51.950968797426114 3.6150446935272265 0 0 0
331 0 1 0 2.1518679865101316 43.35259214794862 12.970530902114422 0 0 0
343 0 1 0 9.58041702361573 44.07965207193797 4.341968297387351 0 0 0
373 0 1 0 10.543897095689138 43.277480439427514 13.458969553290219 0 0 0
21 0 1 0 6.205768114289604 52.76158270156322 2.583681002800554 0 -3 0
335 0 1 0 6.162054582161126 48.42470232596289 9.418473184784007 0 0 0
336 0 1 0 7.2838769444817535 47.187883559449865 2.441656997348769 0 0 0
337 0 1 0 3.0749317843863255 49.1977456841225 7.066584831007998 0 0 0
342 0 1 0 0.7103041473734617 50.773259382667554 12.257252122214544 6 0 0
350 0 1 0 7.102459886308013 42.72855754826349 10.452496710703025 0 0 0
340 0 1 0 3.5562217686757243 44.49081288011215 2.780480103936842 0 0 0
766 0 1 0 13.044005962932498 42.27420688284042 0.8916115642870783 0 0 -2
17 0 1 0 1.38279206998177 52.85090160407377 8.8741562362369 0 -1 0
456 0 1 0 12.326958243714131 53.99978915312327 11.914460183523827 0 -1 0
334 0 1 0 1.150482955756023 48.598732997777184 1.6845435384525198 0 0 -1
345 0 1 0 3.394289382594725 45.42030793238753 7.240104478435366 0 0 0
772 0 1 0 12.181974341274111 49.37099996112883 10.642445808303476 0 0 0
347 0 1 0 4.010597629629097 45.54537611687785 10.982542472415686 0 0 0
348 0 1 0 9.106003029507542 48.2146531719439 6.021404164877245 0 0 0
349 0 1 0 4.888595046790955 42.184087343507116 6.003322675782418 0 0 0
762 0 1 0 8.608691533471653 50.73555712083495 0.9739497925985539 0 0 8
218 0 1 0 10.306521260478108 41.42363564916789 9.727178914022172 0 0 0
365 0 1 0 8.815679745170263 50.95318453579353 11.18513050069371 0 2 0
2 0 1 0 5.136003861324386 52.22091988319701 8.305876285022158 0 0 0
412 0 1 0 10.604842372907102 45.82024635892367 1.1858772752778923 0 0 4
241 0 1 0 0.7592542351863266 42.18620972207647 5.888487871243623 -1 0 0
351 0 1 0 3.011248381883097 41.907269812890334 9.090953298563777 0 0 0
328 0 1 0 8.885416840339044 54.42421268921059 10.201850264697109 0 -2 0
378 0 1 0 8.532102427090026 48.64136041021052 14.470262122487824 0 0 0
28 0 1 0 2.084181146787386 54.51972301818862 14.465797113886511 -3 0 0
767 0 1 0 13.174702023698684 48.341173073269594 2.2280953176943528 0 0 0
332 0 1 0 6.036150164361981 50.405739940130914 16.787587041639792 0 0 0
366 0 1 0 1.7618181982252872 51.912091050133164 21.668814096254035 1 0 0
786 0 1 0 11.584804202888035 48.57926400910895 22.957489198134766 0 0 0
1299 0 1 0 0.6385837749049716 54.50461669721064 24.662191815512482 3 -1 0
377 0 1 0 8.328865179155313 44.058913021161615 25.995460198130736 0 0 0
361 0 1 0 9.842626227441235 52.500221432214175 24.993171819006076 0 0 0
376 0 1 0 0.7891805003108343 46.292037466863775 15.442560664080135 0 0 0
380 0 1 0 7.14983839640427 50.47259796567554 23.525611446262317 0 0 0
386 0 1 0 4.591785920804446 45.45452246322827 16.227825409899324 0 0 0
362 0 1 0 4.839258264995986 45.18575138297973 22.272897866685557 0 0 0
363 0 1 0 4.802838066974881 50.29563931686014 20.429932781333715 0 0 0
266 0 1 0 3.817389480035451 41.2627285429741 17.79749313748342 0 0 0
358 0 1 0 11.960010038091102 51.66474538015956 16.52642587409795 0 0 0
381 0 1 0 3.0354908361145516 43.858918909807976 25.66914003184056 0 0 0
263 0 1 0 12.175420656804212 42.58664811278407 19.133684922136386 0 0 0
368 0 1 0 11.409387734298727 44.677475854995365 21.683445136631033 0 0 0
369 0 1 0 8.09870641888989 47.132707578802616 23.963163259664892 0 0 0
383 0 1 0 0.5643687477538196 46.5783015910409 20.557842158258225 -3 0 0
371 0 1 0 9.06826226863823 45.29545279487037 17.85238070429976 0 0 0
41 0 1 0 9.558141240108878 53.10747347087727 21.160312390843572 0 2 0
353 0 1 0 3.120396248552704 53.36052207707404 26.8228523910254 0 3 0
399 0 1 0 10.54332308733688 47.720079982316946 29.024864265393493 0 0 0
375 0 1 0 6.498039936974123 49.856061007867254 29.173516552077107 0 0 0
280 0 1 0 5.756281553249336 41.635047769218595 21.374748887639598 0 0 0
24 0 1 0 7.231719332072126 53.98633282564693 15.456709090752616 0 -4 0
420 0 1 0 0.8062681081065121 51.884654941445696 29.010212320147318 -1 0 0
1577 0 1 0 0.4460959696620775 48.002107331763796 29.303126487577828 -1 0 0
356 0 1 0 0.23394857003943242 49.65180413917274 25.989137569266585 -3 0 0
287 0 1 0 9.805668724922533 41.13353633542048 23.478915264032153 0 0 0
246 0 1 0 13.193800513134043 41.52396399872452 15.711710199627515 0 0 0
396 0 1 0 2.102359097984307 54.22198714895839 42.46631361337632 0 0 1
388 0 1 0 11.739323757663458 48.423828123922284 34.310535681631436 0 0 0
389 0 1 0 9.049859862408274 49.66834063411556 39.08870989869862 0 0 0
390 0 1 0 1.8375796121326027 45.38817514790376 38.8676080262941 0 0 0
817 0 1 0 10.513751504915094 42.810285009921394 37.530048694534806 0 0 0
392 0 1 0 5.635755485406508 44.05547509112396 44.16686250514058 0 0 0
107 0 1 0 2.8334907814404375 50.48022809069925 37.92712426602706 0 2 0
394 0 1 0 9.669963304221435 53.90847491772145 36.780353681090865 0 0 0
395 0 1 0 7.8352653358834985 49.05604840971529 32.87529907641463 0 0 0
379 0 1 0 3.1784876825629103 51.362367932455456 32.73029197652272 0 0 0
397 0 1 0 8.938927143706486 45.7463113011525 39.75405461874073 0 0 0
387 0 1 0 12.399510455845213 44.74069870332689 34.33942674999872 0 0 0
318 0 1 0 9.18864591883956 41.94075776331632 30.726580939814472 0 0 0
315 0 1 0 7.976918972900237 42.20092299626907 34.67553488200784 0 0 0
415 0 1 0 8.092751745193747 53.81670661842738 33.344292116302704 0 7 0
421 0 1 0 5.053890155910081 45.837227698044835 41.035770917116906 0 0 1
398 0 1 0 1.1710820394705772 50.149597408146946 43.0098414941413 -1 0 0
404 0 1 0 5.15634921185885 47.26628137813357 37.98893103055871 0 0 0
346 0 1 0 8.77750847390509 48.03975858844895 42.990613881548164 0 0 -1
339 0 1 0 4.196151301113731 49.155416902661784 44.221858017651016 0 0 -1
407 0 1 0 8.49441702096665 47.02905244898739 36.142564498531115 0 0 0
408 0 1 0 6.613009123114659 44.94136647748529 31.837546616879113 0 0 0
409 0 1 0 5.648084209952273 49.47646239330119 40.94737904320728 0 0 0
410 0 1 0 4.332304638889923 53.30242772592273 35.68891032348002 0 0 0
14 0 1 0 5.5927014146844645 53.90214430811349 41.210917518827905 0 0 -1
406 0 1 0 2.1875253100460332 42.79186622775518 41.907056921142804 6 0 0
247 0 1 0 10.942530426131102 44.99728366042262 31.342763573903344 0 0 0
414 0 1 0 8.980527426397483 52.96443119763404 42.2895161041903 0 0 0
1583 0 1 0 2.812410173464002 45.23864236323588 35.11780386508047 1 0 0
416 0 1 0 8.779062314615544 42.318367166476435 42.64009910177679 0 0 0
405 0 1 0 0.42204676864785384 42.45908456054431 35.65493447304217 0 0 0
403 0 1 0 4.862219096088419 42.90513665708743 38.45025053199753 0 0 0
391 0 1 0 3.5872304106176953 42.714258341692165 32.08595089047594 0 0 0