LAMMPS data file via write_data, version 23 Jun 2022, timestep = 2000101

1620 atoms
1 atom types

0 52.794504272175 xlo xhi
0 54.794296100667 ylo yhi
0 45.195295323908 zlo zhi

Masses

1 40.078

Atoms # full

338 0 1 0 12.061352131133388 1.3748704299171903 15.563855942358138 0 1 -1
475 0 1 0 23.07383736859531 5.873490300805144 6.576055111541626 -1 0 0
752 0 1 0 21.4389785645613 6.607932540046017 9.879817277272128 0 0 1
1066 0 1 0 16.088274013255077 10.78809077979516 15.172628932862986 -1 1 -2
540 0 1 0 12.041309920341968 10.649517887690985 0.25533046685863264 2 2 2
47 0 1 0 23.980632220462535 9.613056451318952 3.3272042973095166 0 1 0
821 0 1 0 11.001000169550922 8.748612736620155 15.966924077612557 -1 0 0
73 0 1 0 7.585567880203494 7.343295205526531 16.6223155829437 -1 1 2
146 0 1 0 7.62606585055058 3.4034654308512846 15.311766496509854 1 0 0
781 0 1 0 12.465963985884652 8.572788510876276 9.919489994245724 0 1 2
672 0 1 0 17.45629687224777 4.292316040458556 16.56940210750364 -1 1 -1
662 0 1 0 24.029935939620028 9.032370659523291 8.542405667066697 0 1 0
377 0 1 0 10.160707962128987 6.426024866727088 18.938468873244386 1 1 1
957 0 1 0 8.870586982606035 4.3235011924754545 5.419885951177898 2 -1 -1
1284 0 1 0 15.42586793576338 5.10208990467774 13.293583226483944 0 0 -1
772 0 1 0 2.338212194889401 11.142859491259088 7.949912157245655 0 -1 0
1383 0 1 0 23.501813656240856 0.7502130477429747 8.776284550485396 2 1 1
1309 0 1 0 25.644175268531676 1.1120925151078933 4.274628683657571 1 0 1
282 0 1 0 19.802469758402694 2.005117669147675 13.996047501966144 -1 0 -1
814 0 1 0 1.8680095621806658 4.1839933524313695 19.851000959833733 0 1 1
229 0 1 0 8.429677743161399 13.25089147787739 12.42316685529918 -1 1 -1
1038 0 1 0 15.337594904381266 10.186613649610358 6.5473221541738225 0 1 0
974 0 1 0 12.092405288033873 11.954344925072181 13.027198637170317 0 1 0
390 0 1 0 13.80484836058165 4.770266859739488 16.400155097098878 1 0 0
646 0 1 0 6.064123655261998 3.4783524136618045 0.32818008800150766 -2 -1 2
839 0 1 0 25.672796987243938 8.751291715406545 12.446460751067931 -1 2 0
1357 0 1 0 17.922752445969948 2.2687148106400046 10.146122755478219 1 0 0
1119 0 1 0 19.704846470935237 10.392592156398111 20.069992453633116 0 1 1
1028 0 1 0 14.77499578811151 6.4073941961723975 7.01303640487215 0 0 4
1167 0 1 0 7.4931797045535795 8.300570697681525 3.52420356618355 0 1 3
1325 0 1 0 1.6878042220613965 8.441956794947723 17.122767607332847 2 1 -2
381 0 1 0 25.613435270682256 8.023396987662284 19.054138159059917 -1 0 1
71 0 1 0 7.874472670007373 0.8193686567346539 9.552848060952233 -1 1 -1
1095 0 1 0 2.6618458954950763 11.720488395278911 14.436968764128618 1 0 -2
830 0 1 0 1.7206777830900248 6.809442165400911 0.902778408615919 1 0 0
1206 0 1 0 17.661768562581972 4.900038009342193 20.01516217586921 2 1 0
1595 0 1 0 1.2033308639589682 4.647671542985697 4.783266856000439 -1 1 2
482 0 1 0 2.025844443636685 7.24473165542729 10.119780173651339 -1 -1 2
1158 0 1 0 24.720791491911246 6.474595217442124 15.524822119033319 0 0 1
165 0 1 0 2.216810795762201 2.3814285305763656 14.861312508174208 0 0 1
397 0 1 0 15.80932013139501 0.7877055941555148 1.2921035426019176 1 0 0
1315 0 1 0 14.194902911967725 1.9820730147633256 19.817951884441026 1 0 0
642 0 1 0 24.024938052952646 3.9628813511690004 11.791745393065641 -1 2 -1
1546 0 1 0 5.890218467651062 4.04123812684622 21.029351449148244 2 3 -1
1103 0 1 0 16.82580976950351 11.113041466883685 2.384619168504452 0 0 1
1614 0 1 0 18.862493483496877 6.542188214414262 5.047270835262605 1 3 0
180 0 1 0 16.95858122435403 10.435736284687508 11.600976488060828 2 -1 0
562 0 1 0 7.365418439870332 10.066993011310453 14.355025264528617 0 1 2
486 0 1 0 3.9895426730359285 10.260576989119206 2.9989310256200916 2 2 0
1478 0 1 0 21.22611865511332 1.3871665628796355 4.640676883291879 -2 0 1
275 0 1 0 16.327083743650125 11.29692446555773 18.838743469821743 -1 1 0
960 0 1 0 7.892274634119442 13.488184034636419 7.516008123408048 2 1 2
278 0 1 0 22.936857897223774 1.8620184352241251 0.4240096181145347 -1 -1 -1
592 0 1 0 3.405740422238727 1.9627675251623595 9.556289004427393 -2 -1 2
1392 0 1 0 2.3959759000340295 10.54411237859932 20.65234994564187 1 0 1
1590 0 1 0 21.118253257615514 8.825015161505078 17.29210448239396 -1 2 1
1482 0 1 0 5.603524931044326 10.897607917083615 9.93834849342555 2 1 0
1198 0 1 0 17.39315822333797 1.4522471049079382 4.612467234800005 3 0 2
1141 0 1 0 10.930967474497024 11.048695591894317 18.695844860315596 1 0 -1
654 0 1 0 14.148301135817693 8.333367433927894 19.63754158860094 1 1 0
31 0 1 0 5.140187135301478 7.527776729432471 19.09456529057332 -1 0 -1
450 0 1 0 9.6775513367208 0.6270125095049254 1.9444745591570212 1 1 1
1244 0 1 0 22.93219372140116 8.127170354902185 21.65328753899689 1 1 0
1166 0 1 0 19.25430784210165 5.899901072102446 1.2554711906744507 1 0 1
111 0 1 0 21.55443240997791 0.1139671778355748 11.583897132930378 0 0 2
1619 0 1 0 9.980503739676257 9.148590739109693 7.5132094112149606 0 0 2
837 0 1 0 23.644376182017808 6.06977059924809 1.1104920428746115 1 2 0
125 0 1 0 18.032335748377037 0.9482447231812584 19.972700204955707 0 2 -2
615 0 1 0 15.771009718547008 6.623617419316529 1.4698775380595999 0 2 0
531 0 1 0 22.48064206762646 11.070478866384079 14.98855916363639 1 0 2
1047 0 1 0 12.784350298225103 2.9758293405750034 5.960629186140453 2 -1 0
1394 0 1 0 20.132552753848078 12.232597950984298 11.74580373602528 1 0 -1
181 0 1 0 20.57614627154369 13.286128541913493 8.058667864655495 0 -1 -1
413 0 1 0 4.936285633494916 5.169807185981398 3.8576544806502016 0 2 2
368 0 1 0 8.297100510317302 7.6861095199742 10.918345591069532 0 2 -1
928 0 1 0 9.629302728567835 2.415666661512382 18.954784973747913 1 0 2
293 0 1 0 12.158748638250085 4.893382617055978 9.599670765241106 -1 -1 -1
388 0 1 0 5.740927811099241 4.924643247751365 8.034986816922766 0 1 1
1446 0 1 0 26.06760813720893 3.6410667943990256 7.650382995145574 2 2 1
1549 0 1 0 9.393425812388736 5.1648022475013615 1.066409056252944 -1 1 0
1251 0 1 0 12.904139050918904 11.55878375677047 21.98574305897576 -1 -1 1
327 0 1 0 20.098200436522593 5.834893434325828 13.665483917127357 1 1 0
267 0 1 0 5.801472050526424 0.24228449355820433 15.885325811723765 1 -1 1
487 0 1 0 11.506083022333227 7.562900314218174 3.5401130518120856 0 2 -1
920 0 1 0 1.814034587534655 8.359730745205066 5.519389401521043 0 1 1
628 0 1 0 13.692050387913623 3.476888272780693 2.136477585004203 0 0 1
1058 0 1 0 17.81912563479372 7.199938633010652 9.35062700970034 1 -2 -1
509 0 1 0 10.623190354752198 13.506830997936381 3.7268927335869857 1 1 -1
1182 0 1 0 12.46176374311902 1.1569173518837839 9.141216174161853 0 -1 0
504 0 1 0 19.155750398896163 10.699472647780222 5.2484561711385185 0 2 -1
1617 0 1 0 0.6035361519981427 0.17479941095458254 11.52492979448685 0 0 0
189 0 1 0 23.386095744136508 3.0211143094059874 17.056220657296745 -1 1 1
885 0 1 0 24.363369749043223 13.217099713225664 5.278334245374587 0 0 -1
188 0 1 0 0.4224928433380853 3.766165319882828 11.238391481330552 0 0 0
853 0 1 0 0.04368146110195257 7.568928778695511 21.56558699051173 0 0 0
6 0 1 0 0.55329273112411 1.6266360714606296 6.9658933895025905 0 0 -2
1519 0 1 0 20.828043258208968 0.03963759679803758 17.79675527563221 0 2 -1
1102 0 1 0 8.256232025210213 8.471327685905242 22.544736405053893 0 1 1
1490 0 1 0 21.770891541965096 13.300084804650119 41.490508418798676 1 1 -2
926 0 1 0 4.509094308494844 8.840731396609225 23.998002477665604 1 -1 0
439 0 1 0 11.099039158183947 6.489872981728865 23.675229723311034 0 0 1
778 0 1 0 24.460233732253048 6.702710399099405 42.63183836852713 2 2 -2
481 0 1 0 10.027510439327298 2.740286935269156 25.190674073195385 1 2 0
1406 0 1 0 15.59919082731663 3.7672107925779272 29.417807843985873 1 2 1
601 0 1 0 15.977281077454185 2.4206396793231093 33.2576789191425 0 0 -1
895 0 1 0 19.6331459815832 2.0747235019948906 28.36257970760036 1 0 -1
209 0 1 0 7.90003139469876 9.121344892736985 39.45515118918461 -1 0 -1
213 0 1 0 19.33537574056873 6.462864728114417 39.20506545525483 0 0 -1
760 0 1 0 3.81386991677684 9.093075257966182 27.63757187115175 0 2 2
747 0 1 0 12.23480139604129 1.0762443629581422 32.2296822318709 -1 2 0
529 0 1 0 2.7143826485191993 2.0379439013498466 44.55452106037331 0 1 2
861 0 1 0 8.709112154128617 1.4114778084424067 34.93565030492041 2 1 0
422 0 1 0 7.607253267889646 5.299992551436226 24.605351426130582 0 0 0
113 0 1 0 23.060429597558365 6.758205540105211 27.245409311384215 -2 2 2
787 0 1 0 10.530578565003433 6.656695748578774 42.33415969708252 0 2 0
342 0 1 0 22.2361861439866 10.876629420007275 36.71972381403706 0 2 0
1523 0 1 0 3.9502091154202743 8.887647243086437 33.05678612195421 0 1 0
884 0 1 0 2.7477304094734585 10.429419924950542 41.68501018237543 0 1 -1
128 0 1 0 6.420896963988131 4.164488488481692 36.427153481177676 0 0 -1
561 0 1 0 2.389297819020728 12.475758150127119 29.594563976915595 0 1 0
880 0 1 0 18.57024303924456 7.9766303875269555 29.000466821655714 1 -2 -1
9 0 1 0 8.129830853184496 11.971029682366593 24.784454959384988 0 0 1
591 0 1 0 8.619297978320065 11.436002494458013 36.05934692459108 2 0 -1
1368 0 1 0 19.349264479602642 3.8484341536839337 41.93379553774808 1 1 0
984 0 1 0 11.958809060093587 12.314827152612784 33.32133260502435 0 1 -2
749 0 1 0 8.330577140238974 9.73416944229656 28.662056421926938 0 1 -1
1509 0 1 0 2.4783508215090935 13.04612517451185 43.5949062842202 0 1 1
678 0 1 0 22.670339474975876 0.7604686668658799 32.88866721608591 0 2 -1
1311 0 1 0 15.552775234015105 0.8330188388830219 26.837845851076704 0 2 -1
1275 0 1 0 11.721802307078258 4.255440838047032 28.306000689584632 1 1 -1
1611 0 1 0 18.441700902423623 9.952085511414785 23.421358888979924 1 1 0
669 0 1 0 5.436878255853505 1.7710943580035443 32.79780257108371 0 0 -1
167 0 1 0 22.81966843404555 3.8493250429401495 22.701564137026352 1 0 -1
30 0 1 0 18.76750609788533 2.9659934411102213 37.27929931383627 1 2 0
1313 0 1 0 14.621820272434851 11.142172189529422 41.961931775175145 0 0 1
118 0 1 0 4.03540586932517 13.340703665959927 33.6166780614829 -1 -1 0
436 0 1 0 8.102647421981624 13.186075829558233 32.51487936160632 1 0 0
1117 0 1 0 8.03068965477566 3.244292301253543 30.68445813224079 0 0 0
801 0 1 0 3.441711739125561 9.061584106859879 37.20060824362661 -1 1 0
95 0 1 0 8.694316261547971 10.084392284138538 43.0033680542581 1 0 1
989 0 1 0 6.773870413281646 6.696160401934006 31.279919877983247 2 0 2
1282 0 1 0 6.026312646701522 13.446396395259054 41.018705786040044 0 1 -2
22 0 1 0 24.296958563376187 7.6772543441188965 38.77362706183403 -1 0 0
786 0 1 0 25.14701045314212 3.7575830013089995 32.25256217383046 -1 1 1
807 0 1 0 1.5610221491402252 3.7490814002013066 30.590047629890204 1 1 0
1511 0 1 0 12.933162478652912 8.89639827036164 26.203117396869416 0 1 0
1582 0 1 0 13.559039372219486 5.155298311410767 37.862097968133384 -1 -1 1
506 0 1 0 19.571270186855678 5.26344314401376 25.984119777724437 -1 0 -3
27 0 1 0 16.21936126471293 2.1792179897110096 43.06369772776932 0 0 -1
460 0 1 0 11.507171836173965 9.126091340383253 38.20151471509044 0 1 -1
328 0 1 0 3.015481861284964 4.591258789481773 23.529255054878707 1 -1 0
1127 0 1 0 11.08429137774708 2.053545994464675 43.27411459401205 1 0 0
728 0 1 0 12.31405240972363 6.3559264778882145 31.40555625908434 1 0 0
593 0 1 0 5.718141853542439 5.014377200119095 42.18506046981675 0 0 -1
855 0 1 0 15.97860710032904 7.951181987947464 34.45012997167121 1 0 -3
1124 0 1 0 1.8971644973473751 6.81973611273446 40.42031383489614 2 0 0
433 0 1 0 21.83529451794296 13.478206029253645 22.63076838089785 0 0 2
991 0 1 0 23.718763368060028 12.057944500454244 26.134996789815315 0 -1 0
1278 0 1 0 3.28308145824878 4.33797422948782 34.320957585032815 1 0 -1
348 0 1 0 21.73723209937123 3.7797855085564294 30.319586766888513 0 0 0
1021 0 1 0 0.40058597431474346 4.532847460026192 43.21136887446862 0 0 -2
952 0 1 0 6.349389571223026 0.5647445499996405 28.86244043173871 0 1 0
394 0 1 0 12.654324559940843 4.771144712689946 34.45232472317403 -3 -1 -1
231 0 1 0 15.945146815101058 0.38147628672909734 35.91251630892197 1 2 -1
704 0 1 0 19.300066972824563 10.085493199505446 41.03438333735737 0 1 0
1230 0 1 0 3.298532244265848 1.1950149314480862 39.5726572779978 0 0 -2
1585 0 1 0 4.624039430571101 0.7957782569643849 23.231974827011964 1 1 1
997 0 1 0 16.482922559007566 11.279848278258951 38.255393980103946 0 0 1
1387 0 1 0 13.601108724579829 11.872560956563008 28.28000345280841 0 2 1
1516 0 1 0 25.02383631245826 10.50583343000218 41.39157442726991 2 1 0
8 0 1 0 15.80504226723339 5.18426440500227 40.762541831846065 -1 -1 -1
455 0 1 0 19.227646906467417 0.29063351023536727 44.1897802743118 -1 1 1
228 0 1 0 15.547672113105726 1.5766098731202753 39.56974439189291 0 2 0
280 0 1 0 18.11261134763412 8.60610820125459 44.23172230199897 -1 0 0
700 0 1 0 23.6109147821693 8.321728623686042 32.71380992796283 0 0 -1
1510 0 1 0 22.980695863711627 11.548768486237774 31.06066917163125 1 0 0
100 0 1 0 3.7757238997853935 3.868951137010549 27.493042312618776 2 1 0
1137 0 1 0 17.522264528761948 12.271404226679614 27.19678440045319 -1 0 0
92 0 1 0 24.35416585562718 0.6852483588540529 41.58602177322975 -2 0 -1
285 0 1 0 14.99537721991495 9.9172264580455 31.59609995780231 -1 -1 -1
216 0 1 0 13.928448339441951 7.3358902670311945 43.18603209176335 2 0 0
1052 0 1 0 22.82664144537655 4.841328103878468 35.68061014113772 1 -1 0
272 0 1 0 18.779025480667737 5.478717869998426 32.471777201112495 -2 -2 -1
1208 0 1 0 9.498322291874445 5.761552594986722 38.611755136259646 -1 -1 4
1107 0 1 0 7.643808315239584 1.2745164982026143 40.77406785213745 0 1 -3
45 0 1 0 24.185644374320976 0.12549222531051482 37.47071096467069 -1 2 -1
494 0 1 0 1.058900103864142 8.131673266193323 30.17802370137257 -1 0 -1
132 0 1 0 22.138620299463547 2.617287192255704 39.16790793300311 -1 0 1
437 0 1 0 25.03380119371756 2.7243504677381063 27.950859129507794 1 1 -1
1229 0 1 0 20.076889957190907 9.574119684064277 32.406681350726934 2 0 0
1027 0 1 0 10.282632273200527 11.77197618048891 40.16242887571231 0 1 1
1574 0 1 0 6.973674762791249 12.792394845305449 44.921552001357476 0 0 1
1190 0 1 0 15.855223908817973 5.037297546655893 24.254982905287836 -1 1 2
767 0 1 0 22.146997065653977 10.902730808079706 44.419748097938424 -1 1 0
14 0 1 0 25.791315965172203 6.392308026963383 24.49273748772006 -2 1 1
465 0 1 0 5.309606703137764 9.076898731037373 44.72034377286536 0 0 -1
1063 0 1 0 26.104968316165582 7.474156379506644 29.97126592420751 1 2 0
1345 0 1 0 13.543177547635652 1.4511714523600696 23.55724038876312 0 1 1
1239 0 1 0 4.214718125970953 12.966186953267457 23.253259070373094 1 0 1
1451 0 1 0 17.8034686615323 0.25834874071666153 23.74739657835654 -1 1 0
812 0 1 0 9.772313234051769 13.645769652748704 29.157443810398348 0 1 0
172 0 1 0 25.61804405322161 13.467683795784255 35.98632163743934 0 1 1
467 0 1 0 17.891326382540107 21.210106613974997 2.7774856020910312 0 0 -2
162 0 1 0 16.98111050265909 16.170333384177177 5.775546064469237 -3 -1 1
609 0 1 0 12.882572266203388 15.168489222070882 1.319026242985572 1 -1 1
423 0 1 0 25.212461739320464 25.01894181942009 16.78316010778609 -1 1 0
865 0 1 0 7.9019019287117995 19.35177300782573 18.222130901024506 2 -1 -1
1112 0 1 0 17.091523002274304 15.61086304012595 17.43287454347802 1 0 4
361 0 1 0 4.6603650919755255 22.396889864130564 15.224666910447517 -1 0 1
1498 0 1 0 14.758840631217913 17.94529576663209 18.91776114964384 2 2 1
495 0 1 0 11.141344459679791 18.166931481621805 6.646574832896444 0 0 0
175 0 1 0 13.11724323349553 22.52973662539411 20.57108411228588 0 2 0
1376 0 1 0 22.251760884581792 22.049879177628007 22.224412700479785 1 0 2
1483 0 1 0 25.0540112957134 14.014643685846147 15.072651938402235 0 0 -1
431 0 1 0 3.4854502062270747 26.810628452892775 10.185404109996957 1 2 0
789 0 1 0 18.814960471551252 19.230469168663426 17.11548868928771 0 0 0
686 0 1 0 13.29786770338984 15.581463420231822 7.839780901895052 1 2 -1
720 0 1 0 6.6138694298439065 18.371593188340977 15.093329275986765 -1 0 1
1181 0 1 0 6.894551770733785 17.724818533039226 4.088269332825877 3 -2 0
1588 0 1 0 3.48862474698026 15.87922932595968 11.623072113535601 1 2 2
1136 0 1 0 7.268574941631119 24.567090072516827 5.039812878592771 -1 1 -1
1233 0 1 0 9.814674745094978 16.648466554626644 10.571643062788905 0 1 0
33 0 1 0 23.18662806958771 14.536780443616095 11.305929292681846 -1 0 2
379 0 1 0 25.45025279704565 16.911347353222368 17.58889381495104 1 0 1
1409 0 1 0 22.16288435941847 22.689674508689773 4.574607238330717 1 0 0
820 0 1 0 10.604966372494886 17.232578040191456 2.9381388244594238 0 0 0
1472 0 1 0 21.17156741401725 25.675947679107768 17.62916811012983 0 0 1
1349 0 1 0 22.176876376918603 18.13873481574921 10.499005724459142 2 0 1
445 0 1 0 0.5525497244946503 15.943933008686328 7.587310058774393 0 -1 1
756 0 1 0 14.3458548959544 21.20496719364702 8.052740802583898 2 1 1
1194 0 1 0 14.926261064705285 15.270193558969762 13.288088578527665 -1 0 1
1156 0 1 0 12.135968961658344 24.84771716374578 8.424695594705598 0 -1 -2
936 0 1 0 11.866393624587497 15.48945307848328 15.013332419776875 -1 0 0
639 0 1 0 9.084563468579805 17.972722016078187 21.213604398356505 0 1 0
1068 0 1 0 8.980343471890999 20.468041426310748 11.966339783788442 0 0 -1
1416 0 1 0 0.6840682772977951 19.486320782095078 2.973352151381404 0 0 1
202 0 1 0 4.309882731120576 23.755981827464073 21.62669763646648 -1 1 0
353 0 1 0 8.243388895360793 14.34386987934305 21.606619638490304 0 1 -1
872 0 1 0 20.772192766274152 16.733904614994206 5.746854272836347 1 1 2
959 0 1 0 1.0068505976344382 19.281969893582247 10.511154984884948 1 0 -1
107 0 1 0 25.707944621276447 21.780223387952297 4.096269349232407 0 0 2
1565 0 1 0 3.7248475781593657 22.172191134461848 9.929266928924399 0 0 0
579 0 1 0 16.31326240325389 22.480017505381124 10.826036065104793 -2 1 -1
117 0 1 0 2.4337761387828993 23.14516876070197 2.8677119607139194 -1 0 -1
707 0 1 0 0.4500382580883697 19.37654915701564 21.10687819835928 1 -1 -2
415 0 1 0 17.008901349759125 13.895833517158392 10.102489173400821 2 0 1
1577 0 1 0 11.962726293961058 15.075065118414875 18.668896516208875 1 -1 2
1381 0 1 0 14.334043724829233 26.446648392963553 10.65133261949624 -1 -1 -1
637 0 1 0 1.5543288523233754 23.77342723680147 7.427785713328619 -1 1 1
98 0 1 0 3.54589449036943 17.96639384094945 5.740414379851883 2 0 0
806 0 1 0 15.269275746135488 27.303739371424797 17.608540816500142 -1 0 2
29 0 1 0 18.599096393940826 19.113178388918083 12.488277010081783 -2 -1 -1
1377 0 1 0 3.1992518949739126 23.77951895284092 18.084508381033142 1 1 1
1570 0 1 0 0.9894443741966349 27.1596101895549 1.3864379921689631 0 1 0
726 0 1 0 16.096469637710957 24.015786686929868 1.4266634173895063 -1 1 -1
613 0 1 0 22.811534038242936 25.267931050285814 7.4291834639208245 0 -1 1
199 0 1 0 6.631698351884719 24.480401900730946 12.553404276785885 -1 1 1
730 0 1 0 7.690797586303755 25.185107282249486 8.739969528716575 1 -1 0
1336 0 1 0 2.8744080404242873 19.095551492529466 14.90926301485661 1 -1 1
480 0 1 0 14.366047123944545 21.059087973005234 14.199504958309042 1 0 -4
326 0 1 0 15.793367126819383 19.483400806654174 5.048403343365989 1 0 -2
914 0 1 0 24.66392756754719 21.574146063410527 7.601126062370461 0 -1 0
771 0 1 0 13.767300074856589 20.940268697436114 2.8507361618002665 1 0 2
1502 0 1 0 5.8277332777181705 16.399639883650124 8.484303286723735 0 1 0
829 0 1 0 15.472157517588887 26.201903746488853 21.128738033390473 0 1 0
1314 0 1 0 8.063476314672586 21.240319806788495 5.927445276968284 2 1 2
1531 0 1 0 4.477442338986982 21.80609239849662 6.126595175516406 0 1 0
940 0 1 0 4.675279768629058 14.709080043609992 19.859017066349583 2 -1 -1
424 0 1 0 11.075792257832372 24.633656208335058 12.54395365645457 -1 3 0
596 0 1 0 23.097560568177975 25.894959068079764 21.11734154565739 0 -1 -1
1072 0 1 0 24.036701724245358 20.55101706338272 18.414231429390096 0 0 0
58 0 1 0 24.740449774604798 17.642591315532407 6.321545448732762 -2 -1 1
496 0 1 0 10.99018770504623 23.60054341134968 3.0068887531844344 0 0 0
970 0 1 0 10.310039237651983 19.43889286307316 15.531996378482118 0 1 0
782 0 1 0 17.326659217486128 18.075866698113966 9.135580867053948 -2 1 0
258 0 1 0 22.16086115279716 21.68011019308443 10.932824174142215 -2 -1 0
1521 0 1 0 14.718105196009619 27.311209770785513 6.401197843474661 1 1 0
917 0 1 0 7.688888728642235 24.05094024851051 17.72038630659763 0 0 -1
539 0 1 0 20.805579762245078 13.843253188234241 3.71433969294543 -1 0 -2
893 0 1 0 19.366530269063475 24.289493112719523 10.174781084919296 0 0 0
1344 0 1 0 25.78837186336577 25.610458300722815 3.5350015172906835 0 1 0
1224 0 1 0 23.153857096099312 21.828695147087213 14.797552075165731 -1 0 0
711 0 1 0 17.313139277192217 23.78931158976067 7.334918520920165 -2 -1 -1
994 0 1 0 12.624897167182729 18.404477130227338 12.761944292402912 2 -1 -1
256 0 1 0 3.737196047650884 18.731269269814835 18.68514433322638 -2 -1 1
1360 0 1 0 18.48023957645669 22.71551967578857 15.56142872044248 0 2 0
1263 0 1 0 19.45790466328511 20.484991322798496 6.153209216669362 0 -1 -2
1074 0 1 0 21.63101476371966 26.201373643640522 3.4439902915554153 -2 0 1
776 0 1 0 22.098639215506598 18.506408129453785 15.165991586690382 0 1 -1
179 0 1 0 9.845098453113895 20.77282979426141 0.5316242520768034 -1 0 0
831 0 1 0 9.232312632439903 27.27888143411696 3.1232198551413077 2 1 1
1431 0 1 0 18.681604308193293 15.864738309236245 0.4420096188261056 2 0 3
97 0 1 0 6.45358162488254 25.054591703600305 0.9409940268949777 0 1 0
126 0 1 0 25.622844984333135 22.950121149945634 12.391896444860217 2 0 0
564 0 1 0 19.251538786628323 24.596450986669435 21.151207162547355 -1 1 -1
603 0 1 0 16.81211953026531 21.611785503085844 19.29094167264549 0 1 2
701 0 1 0 24.820896217940344 14.039891657769154 20.385770342412435 -1 2 1
35 0 1 0 20.742884353862628 14.612657975172809 14.633642585820999 0 -1 0
257 0 1 0 19.852015162241898 13.978009889707826 19.011893117525254 1 0 0
386 0 1 0 2.278216531897441 25.94795116370555 15.113751020805044 1 0 1
688 0 1 0 26.176483623701976 19.614482690306662 0.7539172045293383 -1 1 1
1487 0 1 0 12.466897817291727 19.3274595009297 22.354255053724152 1 0 -1
1476 0 1 0 6.236687460924421 13.809471180801296 16.266847272261963 0 -1 2
134 0 1 0 16.424806446255612 25.242136804722563 14.0010037701574 -1 -1 0
802 0 1 0 19.389287884604336 25.799544293424564 0.41107710713470796 0 0 2
48 0 1 0 3.6276522705276197 26.645907726986024 4.502028521521647 0 0 -1
1109 0 1 0 20.081784485998867 17.401570475881318 20.955582164063465 -1 1 -1
1370 0 1 0 0.11608201183566014 23.02054760617003 20.59531135554931 -1 1 -1
174 0 1 0 17.60462395814719 27.153941546977343 9.08759708323478 1 -1 0
1195 0 1 0 3.5990260012577284 27.299631716055252 21.665910668417517 1 -1 1
1335 0 1 0 16.236381952250436 27.281819319563745 3.391616632948449 0 1 1
1398 0 1 0 5.241275324578518 13.791759866970464 4.7340369563876985 1 -1 0
1170 0 1 0 1.1700915729694796 13.740386910966311 17.8044081695241 2 0 1
998 0 1 0 16.803520880371178 22.46261415194887 41.284330960648916 1 0 1
104 0 1 0 12.79185546759116 26.11118901244438 34.08950507980392 -1 0 -1
532 0 1 0 13.725959727807817 19.992731800337026 43.535055357266366 0 0 -2
556 0 1 0 23.532821347785482 16.82643156100866 39.152314261890844 0 1 0
554 0 1 0 2.235420781556515 24.29848238248595 29.52582201400806 1 2 0
867 0 1 0 12.088543785152565 24.452107514968272 43.56481652081716 1 -1 0
843 0 1 0 7.616454857223634 18.197198750976042 35.958718294821516 -1 0 -1
182 0 1 0 13.93366137667426 20.019208493679553 31.8024003069236 1 0 1
1031 0 1 0 9.694220918182989 14.751714286532223 35.49980070524522 1 0 -2
463 0 1 0 4.406411188973239 21.903415089136193 42.59611155984115 1 0 -1
395 0 1 0 16.093160950670192 23.803971054064064 29.117156612540224 0 0 -1
1187 0 1 0 11.116434965970733 16.487286370601886 24.09874080209366 -2 0 0
549 0 1 0 8.428239151595763 23.800759012390504 43.11911973788373 0 1 1
1155 0 1 0 0.3394388399518705 16.355274301730248 35.85775656412577 2 -1 0
813 0 1 0 25.347128269983074 25.346554170581182 40.70141761488584 0 2 1
1518 0 1 0 14.7613207021341 14.825505709037227 37.71843347507569 0 1 0
754 0 1 0 5.2788496859703615 14.741293467173403 28.16930370983125 0 2 0
1526 0 1 0 10.37998517789016 23.67915891443299 35.99874045769823 2 -1 1
500 0 1 0 15.057919321058023 26.7298482927221 31.46731921615925 1 0 -1
1432 0 1 0 19.67274407825763 21.96537308290519 27.294126321868944 -1 0 -1
1474 0 1 0 22.653005216600683 22.225304430265446 44.80276652864353 1 0 1
1501 0 1 0 2.660522488259828 14.706825794342441 38.74407730993555 0 -1 -1
260 0 1 0 11.193567293895192 27.283913738013233 39.42360608237626 0 -1 -4
1484 0 1 0 25.38788111831836 20.114980792443767 37.082350533319214 1 -2 -1
296 0 1 0 13.117030531881515 23.287917105273873 38.051116351262046 1 0 3
1017 0 1 0 21.334135608557247 19.713631146217587 41.33804355440988 -1 0 -1
1530 0 1 0 1.0492646514977158 20.70324552719417 33.885396271193194 0 1 0
1418 0 1 0 0.05169508145634779 22.627047362570682 38.13810880440089 1 1 1
378 0 1 0 14.247416420118471 25.80901289965762 41.46095997292964 3 1 0
52 0 1 0 4.131708156382098 17.65938022574315 42.12550874572507 2 -1 0
416 0 1 0 3.11205340988509 21.09893784889898 30.37985307316521 0 1 2
973 0 1 0 15.19268520931586 14.680134984652 43.562155176279504 0 1 0
489 0 1 0 20.17850802204139 18.58334621567471 32.67250652417427 -1 0 2
1525 0 1 0 23.829382979663247 22.583968996029053 33.381334255046205 -1 2 1
1410 0 1 0 16.349228515623665 26.418660905403858 25.63722699044556 0 0 -1
629 0 1 0 10.82441262675305 21.809776565439858 32.69161648880549 0 -3 -1
721 0 1 0 0.6209304743150704 15.993149747170339 27.043113012582953 -1 1 -1
1494 0 1 0 7.00891175140668 18.231876388406473 39.79668548413891 0 -1 0
72 0 1 0 16.731174441567372 21.35730774441791 33.50976205229616 1 1 0
248 0 1 0 25.165054550686655 25.271546180790544 44.67951710828815 1 0 -1
86 0 1 0 11.323133253436767 19.671098103289072 36.46595810210857 0 0 0
373 0 1 0 0.751789557050471 23.89575296594342 42.84812812649154 1 0 1
1500 0 1 0 12.961964763786028 16.57109627905011 34.86386570963916 1 -1 0
206 0 1 0 4.810460603135106 20.886490539662926 37.7943651352607 0 -1 -1
13 0 1 0 5.846684085216371 16.34747125092486 24.518999250007344 1 0 -1
336 0 1 0 7.114708528413259 20.01713684496022 28.230062978485684 0 0 -1
173 0 1 0 6.0505603471150184 20.189131264353264 23.855665818555856 0 0 1
739 0 1 0 17.191371964009697 24.90743325914544 34.2269516998591 -1 0 1
656 0 1 0 5.305133966381132 23.43008312337438 26.543940121919263 -1 1 2
1612 0 1 0 16.02303661560356 16.310715057495482 31.339555909907673 -1 2 0
1212 0 1 0 0.24190495075271062 19.291539478775736 25.887549817963066 0 -1 1
322 0 1 0 24.52650747615663 19.042813245896948 32.69749931699427 0 0 1
148 0 1 0 10.016621204287263 18.375601193102433 42.656975160150125 -1 -1 1
1496 0 1 0 8.230567416584858 18.710242913707855 31.997809235990108 0 0 0
714 0 1 0 16.91895855503313 18.113514535758824 22.70055996502624 -1 1 -1
1004 0 1 0 20.046100049714855 25.332471482186232 41.880087444507964 -1 2 0
961 0 1 0 2.198249418779815 22.340269160450234 24.452520973462804 -1 0 0
536 0 1 0 21.619381003484655 19.178067126749323 28.483892378225516 0 -1 0
705 0 1 0 7.1911970428543635 23.595988541246378 39.145218396185605 0 -1 0
518 0 1 0 17.135932522558633 19.75208054333731 37.64392468118778 -1 0 -1
975 0 1 0 22.01140101412363 16.61727963143695 43.415882385169866 -1 0 1
1153 0 1 0 11.924928724976423 16.777381606458263 31.227243028521585 1 1 -1
1506 0 1 0 26.067098926703054 22.472871356187344 26.000036819175264 0 0 -1
692 0 1 0 20.080493793701432 19.52540970337008 24.596779072584212 1 -1 -1
1492 0 1 0 18.474265407734784 13.770785028020658 40.61090589892952 1 0 0
1171 0 1 0 20.91971846557083 15.083615996079349 34.865937349791984 0 0 1
1291 0 1 0 19.834904868608003 16.572091737936333 38.429787023027956 -1 1 -1
11 0 1 0 11.580216106776769 20.33440302128325 40.10465468080149 1 0 1
103 0 1 0 8.155538267190888 23.764188135290322 23.47324715453298 0 2 1
981 0 1 0 25.925054280722165 15.877977764563349 43.89301384071981 -1 0 -1
1542 0 1 0 15.9651318409486 20.49271241742211 27.320908946286437 0 0 -2
307 0 1 0 8.190885059282285 23.64337206569228 28.422281430311465 0 -1 0
978 0 1 0 2.504218371896319 16.479484535123873 23.567935882391133 1 1 1
1447 0 1 0 0.1995319117766137 26.75061732036798 35.123629089568155 1 -1 0
313 0 1 0 25.379433561718187 19.331672296310668 41.891199118115324 0 0 -1
804 0 1 0 18.184323875462766 17.52402367980405 28.65595566522085 0 1 2
980 0 1 0 3.3185221055690657 25.298701885330985 40.53762220122155 1 0 -1
846 0 1 0 15.919463849232423 16.48201105352804 25.936285333424383 1 2 2
1215 0 1 0 24.64236723121521 25.594524010990696 36.660243663848924 0 1 -1
63 0 1 0 18.96708886567293 24.64539832083838 38.09460480139038 -1 0 0
762 0 1 0 5.248576631339604 17.729995506475575 30.073285955986897 0 2 2
492 0 1 0 22.840478488892494 24.891204767263257 29.48868536883389 0 1 2
942 0 1 0 22.94983758806278 22.458352191518916 38.76954858769228 -2 -1 0
1332 0 1 0 1.0523390414287976 15.008837608835341 32.277962418254496 1 -1 0
796 0 1 0 25.923083776758673 16.08970345112857 33.71812005607945 1 0 1
1603 0 1 0 17.553613271415497 16.2320541781448 35.221165183258634 1 0 -2
864 0 1 0 5.7568361560648595 21.567531479550784 33.44697366093487 2 0 -1
943 0 1 0 12.737232848539662 17.076180148880482 40.5999054155144 -1 0 1
931 0 1 0 4.170870230203942 17.521425018323924 33.32139869171563 -1 1 0
1620 0 1 0 20.896807044622022 14.331496529086936 26.857729795942266 0 1 1
1165 0 1 0 15.219046315745048 22.660544963547068 23.976820507419085 1 0 0
64 0 1 0 26.091481257720112 14.569115932093613 29.081041745507715 0 -1 0
453 0 1 0 21.26133546074605 25.48827158293065 24.589901817863066 0 -1 -2
376 0 1 0 11.514797260372813 22.382577520387425 24.251921014524903 -1 0 1
1121 0 1 0 5.191286263148361 25.12830738799573 32.37834375805687 0 0 0
466 0 1 0 6.614080446266682 27.0174082539218 42.488580036145656 1 0 -2
737 0 1 0 4.538868860548093 26.972828977553533 27.940623913612896 3 0 1